 Gaussian 16, Revision A.03,
 Gaussian 16:  ES64L-G16RevA.03 25-Dec-2016

 --------------------------------------------
 #p opt UM062X/6-311+G** nosymm int=superfine
 --------------------------------------------

 -------------------
 Title Card Required
 -------------------
 Symbolic Z-matrix:
 Charge =  0 Multiplicity = 1

 SCF Done:  E(UM062X) =  -80.4493494147     A.U. after   20 cycles
 SCF Done:  E(UM062X) =  -80.4494203562     A.U. after   13 cycles
 SCF Done:  E(UM062X) =  -80.4494450582     A.U. after   13 cycles
 SCF Done:  E(UM062X) =  -80.4494492490     A.U. after   12 cycles
 SCF Done:  E(UM062X) =  -80.4494497111     A.U. after   11 cycles
 SCF Done:  E(UM062X) =  -80.4494500230     A.U. after   14 cycles
 SCF Done:  E(UM062X) =  -80.4494503295     A.U. after   12 cycles
 SCF Done:  E(UM062X) =  -80.4494504483     A.U. after   11 cycles
 Optimization completed.
    -- Stationary point found.

                          Input orientation:
 ---------------------------------------------------------------------
 Center     Atomic      Atomic             Coordinates (Angstroms)
 Number     Number       Type             X           Y           Z
 ---------------------------------------------------------------------
      1          5           0       -1.342067   -0.000607   -0.000286
      2          7           0        1.342052    0.000524    0.000113
      3          1           0       -2.508011   -0.269575    0.195109
      4          1           0        1.282341    0.837688   -0.606721
 ---------------------------------------------------------------------

 Alpha  occ. eigenvalues --  -14.77692  -7.18568  -0.84514  -0.59421  -0.41380
 Alpha  occ. eigenvalues --   -0.32717  -0.28540
 Alpha virt. eigenvalues --   -0.08510  -0.07426  -0.05764   0.00935   0.04128
 Alpha virt. eigenvalues --    0.05134   0.05252   0.12229   0.15906   0.17580
 Alpha virt. eigenvalues --    0.18713   0.21175   0.25884   0.35425   0.39121

  Beta  occ. eigenvalues --  -14.77692  -7.18568  -0.84514  -0.59421  -0.41380
  Beta  occ. eigenvalues --   -0.32717  -0.28540
  Beta virt. eigenvalues --   -0.08510  -0.07426  -0.05764   0.00935   0.04128
  Beta virt. eigenvalues --    0.05134   0.05252   0.12229   0.15906   0.17580
  Beta virt. eigenvalues --    0.18713   0.21175   0.25884   0.35425   0.39121

 Mulliken charges and spin densities:
               1          2
     1  B    0.079927   0.000000
     2  N   -0.297144  -0.000000
     3  H    0.040621   0.000000
     4  H    0.176595   0.000000
 Sum of Mulliken charges =  -0.00000   0.00000

 Dipole moment (field-independent basis, Debye):
    X=             -3.9547    Y=              0.8647    Z=             -0.6274  Tot=              4.0965
 Quadrupole moment (field-independent basis, Debye-Ang):
   XX=            -10.0273   YY=            -13.4449   ZZ=            -14.2762
   XY=              1.9236   XZ=             -1.3907   YZ=             -1.2656

 Normal termination of Gaussian 16 at Mon Apr 21 22:23:23 2025.
