 Gaussian 16, Revision A.03,
 Gaussian 16:  ES64L-G16RevA.03 25-Dec-2016

 --------------------------------------------
 #p opt UM062X/6-311+G** nosymm int=superfine
 --------------------------------------------

 -------------------
 Title Card Required
 -------------------
 Symbolic Z-matrix:
 Charge =  0 Multiplicity = 1

 SCF Done:  E(UM062X) =  -111.668504900     A.U. after   16 cycles
 SCF Done:  E(UM062X) =  -111.686228050     A.U. after   14 cycles
 SCF Done:  E(UM062X) =  -111.695313757     A.U. after   15 cycles
 SCF Done:  E(UM062X) =  -111.696360112     A.U. after   12 cycles
 SCF Done:  E(UM062X) =  -111.697711718     A.U. after   13 cycles
 SCF Done:  E(UM062X) =  -111.698134606     A.U. after   12 cycles
 SCF Done:  E(UM062X) =  -111.698278400     A.U. after   11 cycles
 SCF Done:  E(UM062X) =  -111.698311841     A.U. after   12 cycles
 SCF Done:  E(UM062X) =  -111.698329334     A.U. after   10 cycles
 SCF Done:  E(UM062X) =  -111.698331666     A.U. after   10 cycles
 Optimization completed.
    -- Stationary point found.

                          Input orientation:
 ---------------------------------------------------------------------
 Center     Atomic      Atomic             Coordinates (Angstroms)
 Number     Number       Type             X           Y           Z
 ---------------------------------------------------------------------
      1          7           0       -1.336540    0.000000    0.000000
      2          7           0        1.336540    0.000000    0.000000
      3          1           0       -1.279569   -0.820373   -0.614807
      4          1           0        1.279706    0.415800   -0.937077
      5          1           0       -1.279047   -0.416502    0.936735
      6          1           0        1.278882    0.820803    0.614163
 ---------------------------------------------------------------------

 Alpha  occ. eigenvalues --  -14.80286 -14.80283  -0.95504  -0.93515  -0.55203
 Alpha  occ. eigenvalues --   -0.53918  -0.41037  -0.39663  -0.32239
 Alpha virt. eigenvalues --   -0.13297   0.04608   0.07002   0.08753   0.11453
 Alpha virt. eigenvalues --    0.13116   0.13882   0.15651   0.15972   0.19722
 Alpha virt. eigenvalues --    0.20922   0.26797   0.27939   0.51487   0.51564

  Beta  occ. eigenvalues --  -14.80286 -14.80283  -0.95504  -0.93515  -0.55203
  Beta  occ. eigenvalues --   -0.53918  -0.41037  -0.39663  -0.32239
  Beta virt. eigenvalues --   -0.13297   0.04608   0.07002   0.08753   0.11453
  Beta virt. eigenvalues --    0.13116   0.13882   0.15651   0.15972   0.19722
  Beta virt. eigenvalues --    0.20922   0.26797   0.27939   0.51487   0.51564

 Mulliken charges and spin densities:
               1          2
     1  N   -0.508060   0.000000
     2  N   -0.508053  -0.000000
     3  H    0.254015  -0.000000
     4  H    0.254012   0.000000
     5  H    0.254042  -0.000000
     6  H    0.254044   0.000000
 Sum of Mulliken charges =  -0.00000   0.00000

 Dipole moment (field-independent basis, Debye):
    X=             -0.0000    Y=             -0.0004    Z=             -0.0015  Tot=              0.0015
 Quadrupole moment (field-independent basis, Debye-Ang):
   XX=            -15.5944   YY=            -14.1360   ZZ=            -11.3968
   XY=              5.7773   XZ=             -1.5066   YZ=              0.7662

 Normal termination of Gaussian 16 at Thu May 15 14:40:32 2025.
