 Gaussian 16, Revision A.03,
 Gaussian 16:  ES64L-G16RevA.03 25-Dec-2016

 --------------------------------------------
 #p opt UM062X/6-311+G** nosymm int=superfine
 --------------------------------------------

 -------------------
 Title Card Required
 -------------------
 Symbolic Z-matrix:
 Charge =  1 Multiplicity = 2

 SCF Done:  E(UM062X) =  -379.307837613     A.U. after   47 cycles
 SCF Done:  E(UM062X) =  -379.308518235     A.U. after   18 cycles
 SCF Done:  E(UM062X) =  -379.308520018     A.U. after   18 cycles
 Optimization completed.
    -- Stationary point found.

                          Input orientation:
 ---------------------------------------------------------------------
 Center     Atomic      Atomic             Coordinates (Angstroms)
 Number     Number       Type             X           Y           Z
 ---------------------------------------------------------------------
      1          6           0       -1.694427    0.000000    0.000000
      2         15           0        1.694427    0.000000    0.000000
      3          1           0       -2.813197   -0.000000    0.000001
 ---------------------------------------------------------------------

 Alpha  occ. eigenvalues --  -78.34353 -10.97294  -7.15811  -5.27937  -5.27568
 Alpha  occ. eigenvalues --   -5.26577  -0.99389  -0.87246  -0.65905  -0.52768
 Alpha  occ. eigenvalues --   -0.47452
 Alpha virt. eigenvalues --   -0.38251  -0.35096  -0.35051  -0.13344  -0.09982
 Alpha virt. eigenvalues --   -0.08655  -0.08340  -0.06810  -0.05686  -0.05301
 Alpha virt. eigenvalues --   -0.02178   0.00849   0.15679   0.15894   0.16869

  Beta  occ. eigenvalues --  -78.33606 -10.97251  -7.15586  -5.27354  -5.26457
  Beta  occ. eigenvalues --   -5.25638  -0.99142  -0.82143  -0.65705  -0.46450
  Beta virt. eigenvalues --   -0.37128  -0.34966  -0.33702  -0.30256  -0.13854
  Beta virt. eigenvalues --   -0.10880  -0.08583  -0.08363  -0.06891  -0.05348
  Beta virt. eigenvalues --   -0.05055  -0.02567   0.00819   0.13345   0.15357

 Mulliken charges and spin densities:
               1          2
     1  C    0.183924   0.060120
     2  P    0.556533   0.942959
     3  H    0.259542  -0.003079
 Sum of Mulliken charges =   1.00000   1.00000

 Dipole moment (field-independent basis, Debye):
    X=             -1.3500    Y=              0.0000    Z=              0.0000  Tot=              1.3500
 Quadrupole moment (field-independent basis, Debye-Ang):
   XX=              8.3567   YY=            -19.5126   ZZ=            -17.0143
   XY=              0.0000   XZ=             -0.0000   YZ=             -0.9418

 Normal termination of Gaussian 16 at Mon Apr 21 19:26:34 2025.
