 Gaussian 16, Revision A.03,
 Gaussian 16:  ES64L-G16RevA.03 25-Dec-2016

 --------------------------------------------
 #p opt UM062X/6-311+G** nosymm int=superfine
 --------------------------------------------

 -------------------
 Title Card Required
 -------------------
 Symbolic Z-matrix:
 Charge =  0 Multiplicity = 1

 SCF Done:  E(UM062X) =  -382.331024570     A.U. after   12 cycles
 SCF Done:  E(UM062X) =  -382.337805957     A.U. after   10 cycles
 SCF Done:  E(UM062X) =  -382.339963703     A.U. after   10 cycles
 SCF Done:  E(UM062X) =  -382.339985146     A.U. after    8 cycles
 SCF Done:  E(UM062X) =  -382.339996393     A.U. after    9 cycles
 SCF Done:  E(UM062X) =  -382.339997038     A.U. after    8 cycles
 SCF Done:  E(UM062X) =  -382.339997143     A.U. after    7 cycles
 Optimization completed.
    -- Stationary point found.

                          Input orientation:
 ---------------------------------------------------------------------
 Center     Atomic      Atomic             Coordinates (Angstroms)
 Number     Number       Type             X           Y           Z
 ---------------------------------------------------------------------
      1          6           0       -1.381264    0.000000    0.000000
      2         15           0        1.381264    0.000000    0.000000
      3          1           0        1.371688   -1.418261    0.028256
      4          1           0       -1.567386    1.039724    0.232556
      5          1           0        1.371669    0.084310    1.416009
      6          1           0       -1.567339   -0.312091   -1.018687
      7          1           0       -1.581099   -0.722171    0.780201
 ---------------------------------------------------------------------

 Alpha  occ. eigenvalues --  -78.03149 -10.57413  -6.85474  -4.97002  -4.96953
 Alpha  occ. eigenvalues --   -4.96757  -0.77591  -0.69249  -0.48993  -0.48975
 Alpha  occ. eigenvalues --   -0.43545  -0.34866  -0.28339
 Alpha virt. eigenvalues --   -0.05673   0.01707   0.04007   0.04439   0.04782
 Alpha virt. eigenvalues --    0.06431   0.06774   0.07481   0.07600   0.12779
 Alpha virt. eigenvalues --    0.17530   0.18876   0.19175   0.25299   0.30136

  Beta  occ. eigenvalues --  -78.03149 -10.57413  -6.85474  -4.97002  -4.96953
  Beta  occ. eigenvalues --   -4.96757  -0.77591  -0.69249  -0.48993  -0.48975
  Beta  occ. eigenvalues --   -0.43545  -0.34866  -0.28339
  Beta virt. eigenvalues --   -0.05673   0.01707   0.04007   0.04439   0.04782
  Beta virt. eigenvalues --    0.06431   0.06774   0.07481   0.07600   0.12779
  Beta virt. eigenvalues --    0.17530   0.18876   0.19175   0.25299   0.30136

 Mulliken charges and spin densities:
               1          2
     1  C   -0.554012  -0.000000
     2  P   -0.021341  -0.000000
     3  H    0.013073   0.000000
     4  H    0.183438   0.000000
     5  H    0.013082   0.000000
     6  H    0.183450   0.000000
     7  H    0.182310   0.000000
 Sum of Mulliken charges =  -0.00000  -0.00000

 Dipole moment (field-independent basis, Debye):
    X=             -0.8161    Y=             -0.5160    Z=              0.5587  Tot=              1.1155
 Quadrupole moment (field-independent basis, Debye-Ang):
   XX=            -22.8067   YY=            -22.1491   ZZ=            -22.2622
   XY=             -1.0868   XZ=              1.1767   YZ=              0.7105

 Normal termination of Gaussian 16 at Mon Apr 21 19:05:18 2025.
