 Gaussian 16, Revision A.03,
 Gaussian 16:  ES64L-G16RevA.03 25-Dec-2016

 --------------------------------------------
 #p opt UM062X/6-311+G** nosymm int=superfine
 --------------------------------------------

 -------------------
 Title Card Required
 -------------------
 Symbolic Z-matrix:
 Charge =  1 Multiplicity = 2

 SCF Done:  E(UM062X) =  -379.581069735     A.U. after   43 cycles
 SCF Done:  E(UM062X) =  -379.581071124     A.U. after   23 cycles
 Optimization completed.
    -- Stationary point found.

                          Input orientation:
 ---------------------------------------------------------------------
 Center     Atomic      Atomic             Coordinates (Angstroms)
 Number     Number       Type             X           Y           Z
 ---------------------------------------------------------------------
      1          6           0       -0.819427    0.000000    0.000000
      2         15           0        0.819427    0.000000    0.000000
      3          1           0       -1.905700    0.000000    0.000000
 ---------------------------------------------------------------------

 Alpha  occ. eigenvalues --  -78.38166 -10.91517  -7.20062  -5.32081  -5.31206
 Alpha  occ. eigenvalues --   -5.31173  -1.11822  -0.91066  -0.71863  -0.65153
 Alpha  occ. eigenvalues --   -0.62845
 Alpha virt. eigenvalues --   -0.32721  -0.30814  -0.16204  -0.14413  -0.10548
 Alpha virt. eigenvalues --   -0.10380  -0.10129  -0.07810  -0.05135  -0.04827
 Alpha virt. eigenvalues --   -0.00427   0.04949   0.12650   0.12759   0.15952

  Beta  occ. eigenvalues --  -78.37882 -10.91220  -7.20015  -5.31232  -5.31187
  Beta  occ. eigenvalues --   -5.31141  -1.07519  -0.89566  -0.70799  -0.60782
  Beta virt. eigenvalues --   -0.43268  -0.29518  -0.26655  -0.16171  -0.14278
  Beta virt. eigenvalues --   -0.10383  -0.10293  -0.10184  -0.07472  -0.04819
  Beta virt. eigenvalues --   -0.04701  -0.00980   0.05368   0.10576   0.12559

 Mulliken charges and spin densities:
               1          2
     1  C    0.060317   0.627840
     2  P    0.640856   0.395233
     3  H    0.298827  -0.023073
 Sum of Mulliken charges =   1.00000   1.00000

 Dipole moment (field-independent basis, Debye):
    X=              0.2073    Y=              0.0000    Z=              0.0000  Tot=              0.2073
 Quadrupole moment (field-independent basis, Debye-Ang):
   XX=             -7.9820   YY=            -14.5816   ZZ=            -17.0103
   XY=             -0.0000   XZ=             -0.0000   YZ=             -0.2987

 Normal termination of Gaussian 16 at Mon Apr 21 19:20:28 2025.
