 Gaussian 16, Revision A.03,
 Gaussian 16:  ES64L-G16RevA.03 25-Dec-2016

 --------------------------------
 #p UM062X/6-311+G** Pop=NBO Read
 --------------------------------

 ------------
 NBO Analysis
 ------------
 Symbolic Z-matrix:
 Charge =  0 Multiplicity = 1

                         Standard orientation:
 ---------------------------------------------------------------------
 Center     Atomic      Atomic             Coordinates (Angstroms)
 Number     Number       Type             X           Y           Z
 ---------------------------------------------------------------------
      1         14           0       -0.000000    1.062518   -0.000009
      2         14           0       -0.000000   -1.062518   -0.000009
      3          1           0       -1.248769    1.843412   -0.000400
      4          1           0        1.248769   -1.843412   -0.000400
      5          1           0        1.248776    1.843423    0.000525
      6          1           0       -1.248776   -1.843423    0.000525
 ---------------------------------------------------------------------

 SCF Done:  E(UM062X) =  -581.222551458     A.U. after    8 cycles

 The electronic state is 1-A.
 Alpha  occ. eigenvalues --  -67.02389 -67.02388  -5.56256  -5.56230  -3.87230
 Alpha  occ. eigenvalues --   -3.87214  -3.87170  -3.87056  -3.87042  -3.87025
 Alpha  occ. eigenvalues --   -0.64226  -0.55839  -0.44016  -0.41309  -0.38295
 Alpha  occ. eigenvalues --   -0.24926
 Alpha virt. eigenvalues --   -0.04010   0.01413   0.02067   0.03368   0.04415
 Alpha virt. eigenvalues --    0.05091   0.05414   0.06377   0.08127   0.08243
 Alpha virt. eigenvalues --    0.09707   0.10370   0.14482   0.28290   0.30972

  Beta  occ. eigenvalues --  -67.02389 -67.02388  -5.56256  -5.56230  -3.87230
  Beta  occ. eigenvalues --   -3.87214  -3.87170  -3.87056  -3.87042  -3.87025
  Beta  occ. eigenvalues --   -0.64226  -0.55839  -0.44016  -0.41309  -0.38295
  Beta  occ. eigenvalues --   -0.24926
  Beta virt. eigenvalues --   -0.04010   0.01413   0.02067   0.03368   0.04415
  Beta virt. eigenvalues --    0.05091   0.05414   0.06377   0.08127   0.08243
  Beta virt. eigenvalues --    0.09707   0.10370   0.14482   0.28290   0.30972

 Mulliken charges and spin densities:
               1          2
     1  Si   0.137408  -0.000000
     2  Si   0.137408  -0.000000
     3  H   -0.068704  -0.000000
     4  H   -0.068704  -0.000000
     5  H   -0.068704  -0.000000
     6  H   -0.068704  -0.000000
 Sum of Mulliken charges =  -0.00000  -0.00000

 Dipole moment (field-independent basis, Debye):
    X=             -0.0000    Y=              0.0000    Z=             -0.0000  Tot=              0.0000
 Quadrupole moment (field-independent basis, Debye-Ang):
   XX=            -29.1216   YY=            -27.7057   ZZ=            -31.8942
   XY=             -0.0000   XZ=             -0.0000   YZ=              0.0000

 Summary of Natural Population Analysis:

                                       Natural Population
                Natural  -----------------------------------------------
    Atom  No    Charge         Core      Valence    Rydberg      Total
 -----------------------------------------------------------------------
     Si    1    0.10796      4.99893     1.87608    0.01702     6.89204
     Si    2    0.10796      4.99893     1.87608    0.01702     6.89204
      H    3   -0.05398      0.00000     0.55296    0.00102     0.55398
      H    4   -0.05398      0.00000     0.55296    0.00102     0.55398
      H    5   -0.05398      0.00000     0.55296    0.00102     0.55398
      H    6   -0.05398      0.00000     0.55296    0.00102     0.55398
 =======================================================================
   * Total *   -0.00000      9.99786     5.96402    0.03812    16.00000

 Normal termination of Gaussian 16 at Wed Apr 16 05:50:01 2025.
