 Gaussian 16, Revision A.03,
 Gaussian 16:  ES64L-G16RevA.03 25-Dec-2016

 --------------------------------------------
 #p opt UM062X/6-311+G** nosymm int=superfine
 --------------------------------------------

 -------------------
 Title Card Required
 -------------------
 Symbolic Z-matrix:
 Charge =  0 Multiplicity = 1

 SCF Done:  E(UM062X) =  -683.569954991     A.U. after   11 cycles
 SCF Done:  E(UM062X) =  -683.570090172     A.U. after   10 cycles
 SCF Done:  E(UM062X) =  -683.570415226     A.U. after   11 cycles
 SCF Done:  E(UM062X) =  -683.570557714     A.U. after   17 cycles
 SCF Done:  E(UM062X) =  -683.570579786     A.U. after   15 cycles
 SCF Done:  E(UM062X) =  -683.570581214     A.U. after   12 cycles
 SCF Done:  E(UM062X) =  -683.570581315     A.U. after    9 cycles
 Optimization completed.
    -- Stationary point found.

                          Input orientation:
 ---------------------------------------------------------------------
 Center     Atomic      Atomic             Coordinates (Angstroms)
 Number     Number       Type             X           Y           Z
 ---------------------------------------------------------------------
      1         15           0       -2.409490    0.000000    0.000000
      2         15           0        2.409490    0.000000    0.000000
      3          1           0       -2.240389   -1.413820    0.000000
      4          1           0        2.240389    1.413820    0.000000
 ---------------------------------------------------------------------

 Alpha  occ. eigenvalues --  -78.08151 -78.08151  -6.90237  -6.90237  -5.01642
 Alpha  occ. eigenvalues --   -5.01642  -5.01627  -5.01627  -5.01455  -5.01455
 Alpha  occ. eigenvalues --   -0.68502  -0.68184  -0.40531  -0.40488  -0.24390
 Alpha  occ. eigenvalues --   -0.23561
 Alpha virt. eigenvalues --   -0.17546  -0.16587   0.01821   0.03018   0.03712
 Alpha virt. eigenvalues --    0.04390   0.05508   0.06031   0.06330   0.07321
 Alpha virt. eigenvalues --    0.08045   0.11193   0.28876   0.28990   0.30671

  Beta  occ. eigenvalues --  -78.08151 -78.08151  -6.90237  -6.90237  -5.01642
  Beta  occ. eigenvalues --   -5.01642  -5.01627  -5.01627  -5.01455  -5.01455
  Beta  occ. eigenvalues --   -0.68502  -0.68184  -0.40531  -0.40488  -0.24390
  Beta  occ. eigenvalues --   -0.23561
  Beta virt. eigenvalues --   -0.17546  -0.16587   0.01821   0.03018   0.03712
  Beta virt. eigenvalues --    0.04390   0.05508   0.06031   0.06330   0.07321
  Beta virt. eigenvalues --    0.08045   0.11193   0.28876   0.28990   0.30671

 Mulliken charges and spin densities:
               1          2
     1  P    0.013504  -0.000013
     2  P    0.013504   0.000013
     3  H   -0.013504   0.000000
     4  H   -0.013504  -0.000000
 Sum of Mulliken charges =  -0.00000   0.00000

 Dipole moment (field-independent basis, Debye):
    X=              0.0000    Y=              0.0000    Z=              0.0000  Tot=              0.0000
 Quadrupole moment (field-independent basis, Debye-Ang):
   XX=            -27.6453   YY=            -28.5197   ZZ=            -30.7150
   XY=              3.5736   XZ=             -0.0000   YZ=             -0.0000

 Normal termination of Gaussian 16 at Mon Apr 21 21:14:14 2025.
