 Gaussian 16, Revision A.03,
 Gaussian 16:  ES64L-G16RevA.03 25-Dec-2016

 --------------------------------------------
 #p opt UM062X/6-311+G** nosymm int=superfine
 --------------------------------------------

 -------------------
 Title Card Required
 -------------------
 Symbolic Z-matrix:
 Charge =  0 Multiplicity = 1

 SCF Done:  E(UM062X) =  -381.093203462     A.U. after   12 cycles
 SCF Done:  E(UM062X) =  -381.095220301     A.U. after   11 cycles
 SCF Done:  E(UM062X) =  -381.095360546     A.U. after   11 cycles
 SCF Done:  E(UM062X) =  -381.090455788     A.U. after   13 cycles
 SCF Done:  E(UM062X) =  -381.095303031     A.U. after   11 cycles
 SCF Done:  E(UM062X) =  -381.095457832     A.U. after    7 cycles
 SCF Done:  E(UM062X) =  -381.095407048     A.U. after   11 cycles
 SCF Done:  E(UM062X) =  -381.095509211     A.U. after    9 cycles
 SCF Done:  E(UM062X) =  -381.095509713     A.U. after    8 cycles
 SCF Done:  E(UM062X) =  -381.095509906     A.U. after    9 cycles
 Optimization completed.
    -- Stationary point found.

                          Input orientation:
 ---------------------------------------------------------------------
 Center     Atomic      Atomic             Coordinates (Angstroms)
 Number     Number       Type             X           Y           Z
 ---------------------------------------------------------------------
      1          6           0       -1.105452    0.000000    0.000000
      2         15           0        1.105452    0.000000    0.000000
      3          1           0       -1.633491   -0.945637    0.008654
      4          1           0        1.094591   -1.419794    0.013347
      5          1           0       -1.618496    0.953351   -0.008654
 ---------------------------------------------------------------------

 Alpha  occ. eigenvalues --  -78.05750 -10.61558  -6.87691  -4.99171  -4.99118
 Alpha  occ. eigenvalues --   -4.98967  -0.76999  -0.66036  -0.51736  -0.40198
 Alpha  occ. eigenvalues --   -0.34944  -0.27396
 Alpha virt. eigenvalues --   -0.08887  -0.00710   0.02229   0.04299   0.05416
 Alpha virt. eigenvalues --    0.05583   0.06866   0.07413   0.10464   0.11089
 Alpha virt. eigenvalues --    0.14851   0.18946   0.21162   0.30375   0.31888

  Beta  occ. eigenvalues --  -78.05750 -10.61558  -6.87691  -4.99171  -4.99118
  Beta  occ. eigenvalues --   -4.98967  -0.76999  -0.66036  -0.51736  -0.40198
  Beta  occ. eigenvalues --   -0.34944  -0.27396
  Beta virt. eigenvalues --   -0.08887  -0.00710   0.02229   0.04299   0.05416
  Beta virt. eigenvalues --    0.05583   0.06866   0.07413   0.10464   0.11089
  Beta virt. eigenvalues --    0.14851   0.18946   0.21162   0.30375   0.31888

 Mulliken charges and spin densities:
               1          2
     1  C   -0.455188   0.000000
     2  P    0.097562  -0.000000
     3  H    0.188448  -0.000000
     4  H   -0.019798   0.000000
     5  H    0.188976  -0.000000
 Sum of Mulliken charges =  -0.00000   0.00000

 Dipole moment (field-independent basis, Debye):
    X=             -0.7514    Y=             -0.5748    Z=              0.0054  Tot=              0.9461
 Quadrupole moment (field-independent basis, Debye-Ang):
   XX=            -18.9384   YY=            -20.0959   ZZ=            -23.9549
   XY=             -1.1782   XZ=              0.0109   YZ=             -0.0357

 Normal termination of Gaussian 16 at Mon Apr 21 19:13:26 2025.
