 Gaussian 16, Revision A.03,
 Gaussian 16:  ES64L-G16RevA.03 25-Dec-2016

 --------------------------------------------
 #p opt UM062X/6-311+G** nosymm int=superfine
 --------------------------------------------

 -------------------
 Title Card Required
 -------------------
 Symbolic Z-matrix:
 Charge =  0 Multiplicity = 1

 SCF Done:  E(UM062X) =  -151.311206220     A.U. after   19 cycles
 SCF Done:  E(UM062X) =  -151.311888893     A.U. after   21 cycles
 SCF Done:  E(UM062X) =  -151.313088521     A.U. after   19 cycles
 SCF Done:  E(UM062X) =  -151.313873746     A.U. after   22 cycles
 SCF Done:  E(UM062X) =  -151.314280355     A.U. after   24 cycles
 SCF Done:  E(UM062X) =  -151.314381194     A.U. after   42 cycles
 SCF Done:  E(UM062X) =  -151.314388443     A.U. after   17 cycles
 SCF Done:  E(UM062X) =  -151.314391273     A.U. after   33 cycles
 Optimization completed.
    -- Stationary point found.

                          Input orientation:
 ---------------------------------------------------------------------
 Center     Atomic      Atomic             Coordinates (Angstroms)
 Number     Number       Type             X           Y           Z
 ---------------------------------------------------------------------
      1          8           0       -1.786938    0.000000    0.000000
      2          8           0        1.786938    0.000000    0.000000
      3          1           0       -1.588986   -0.761166   -0.574136
      4          1           0        1.589257    0.760522    0.575087
 ---------------------------------------------------------------------

 Alpha  occ. eigenvalues --  -19.72511 -19.72510  -1.13063  -1.12815  -0.56834
 Alpha  occ. eigenvalues --   -0.56679  -0.44268  -0.44078  -0.36560
 Alpha virt. eigenvalues --   -0.26879   0.05075   0.07650   0.14957   0.15059
 Alpha virt. eigenvalues --    0.17340   0.18414   0.19968   0.20598   0.20693
 Alpha virt. eigenvalues --    0.30997   0.48889   0.51636   0.99718   1.00951

  Beta  occ. eigenvalues --  -19.72511 -19.72510  -1.13063  -1.12815  -0.56834
  Beta  occ. eigenvalues --   -0.56679  -0.44268  -0.44078  -0.36560
  Beta virt. eigenvalues --   -0.26879   0.05075   0.07650   0.14957   0.15059
  Beta virt. eigenvalues --    0.17340   0.18414   0.19968   0.20598   0.20693
  Beta virt. eigenvalues --    0.30997   0.48889   0.51636   0.99718   1.00951

 Mulliken charges and spin densities:
               1          2
     1  O   -0.267912   0.000000
     2  O   -0.267934   0.000000
     3  H    0.267925  -0.000000
     4  H    0.267921  -0.000000
 Sum of Mulliken charges =  -0.00000  -0.00000

 Dipole moment (field-independent basis, Debye):
    X=              0.0004    Y=             -0.0013    Z=              0.0019  Tot=              0.0023
 Quadrupole moment (field-independent basis, Debye-Ang):
   XX=            -13.3517   YY=            -10.5587   ZZ=            -11.9394
   XY=              4.9466   XZ=              3.7357   YZ=              2.4270

 Normal termination of Gaussian 16 at Mon Apr 21 21:37:24 2025.
