 Gaussian 16, Revision A.03,
 Gaussian 16:  ES64L-G16RevA.03 25-Dec-2016

 --------------------------------------------
 #p opt UM062X/6-311+G** nosymm int=superfine
 --------------------------------------------

 -------------------
 Title Card Required
 -------------------
 Symbolic Z-matrix:
 Charge =  0 Multiplicity = 1

 SCF Done:  E(UM062X) =  -114.442369103     A.U. after   10 cycles
 SCF Done:  E(UM062X) =  -114.443501063     A.U. after    9 cycles
 SCF Done:  E(UM062X) =  -114.443633787     A.U. after    9 cycles
 SCF Done:  E(UM062X) =  -114.443633669     A.U. after    8 cycles
 SCF Done:  E(UM062X) =  -114.443614878     A.U. after    9 cycles
 SCF Done:  E(UM062X) =  -114.443634037     A.U. after    9 cycles
 Optimization completed.
    -- Stationary point found.

                          Input orientation:
 ---------------------------------------------------------------------
 Center     Atomic      Atomic             Coordinates (Angstroms)
 Number     Number       Type             X           Y           Z
 ---------------------------------------------------------------------
      1          6           0       -0.698311    0.000000    0.000000
      2          8           0        0.698311    0.000000    0.000000
      3          1           0       -1.219108   -0.955952    0.000416
      4          1           0       -1.219114    0.955948    0.000416
 ---------------------------------------------------------------------

 Alpha  occ. eigenvalues --  -19.65892 -10.66919  -1.10175  -0.75928  -0.57296
 Alpha  occ. eigenvalues --   -0.50257  -0.42039  -0.36297
 Alpha virt. eigenvalues --   -0.05695   0.01613   0.04409   0.04425   0.06720
 Alpha virt. eigenvalues --    0.15145   0.20147   0.21092   0.24250   0.24807
 Alpha virt. eigenvalues --    0.26310   0.33351   0.44955   0.49736   0.54930

  Beta  occ. eigenvalues --  -19.65892 -10.66919  -1.10175  -0.75928  -0.57296
  Beta  occ. eigenvalues --   -0.50257  -0.42039  -0.36297
  Beta virt. eigenvalues --   -0.05695   0.01613   0.04409   0.04425   0.06720
  Beta virt. eigenvalues --    0.15145   0.20147   0.21092   0.24250   0.24807
  Beta virt. eigenvalues --    0.26310   0.33351   0.44955   0.49736   0.54930

 Mulliken charges and spin densities:
               1          2
     1  C   -0.046956  -0.000000
     2  O   -0.286618   0.000000
     3  H    0.166787  -0.000000
     4  H    0.166787   0.000000
 Sum of Mulliken charges =  -0.00000   0.00000

 Dipole moment (field-independent basis, Debye):
    X=             -3.3067    Y=             -0.0000    Z=              0.0006  Tot=              3.3067
 Quadrupole moment (field-independent basis, Debye-Ang):
   XX=            -11.5353   YY=            -11.4012   ZZ=            -12.2867
   XY=             -0.0000   XZ=             -0.0005   YZ=              0.0000

 Normal termination of Gaussian 16 at Mon Apr 21 18:42:26 2025.
