 Gaussian 16, Revision A.03,
 Gaussian 16:  ES64L-G16RevA.03 25-Dec-2016

 --------------------------------------------
 #p opt UM062X/6-311+G** nosymm int=superfine
 --------------------------------------------

 -------------------
 Title Card Required
 -------------------
 Symbolic Z-matrix:
 Charge =  1 Multiplicity = 2

 SCF Done:  E(UM062X) =  -1615.28682322     A.U. after   23 cycles
 SCF Done:  E(UM062X) =  -1615.44865794     A.U. after   19 cycles
 SCF Done:  E(UM062X) =  -1615.56536599     A.U. after   21 cycles
 SCF Done:  E(UM062X) =  -1615.57049880     A.U. after   19 cycles
 SCF Done:  E(UM062X) =  -1615.56558915     A.U. after   23 cycles
 SCF Done:  E(UM062X) =  -1615.56702444     A.U. after   22 cycles
 SCF Done:  E(UM062X) =  -1615.57753542     A.U. after   18 cycles
 SCF Done:  E(UM062X) =  -1615.57492458     A.U. after   21 cycles
 SCF Done:  E(UM062X) =  -1615.57920990     A.U. after   18 cycles
 SCF Done:  E(UM062X) =  -1615.57894430     A.U. after   20 cycles
 SCF Done:  E(UM062X) =  -1615.57959352     A.U. after   19 cycles
 SCF Done:  E(UM062X) =  -1615.57983868     A.U. after   19 cycles
 SCF Done:  E(UM062X) =  -1615.57996433     A.U. after   18 cycles
 SCF Done:  E(UM062X) =  -1615.57996892     A.U. after   14 cycles
 SCF Done:  E(UM062X) =  -1615.57996929     A.U. after   13 cycles
 SCF Done:  E(UM062X) =  -1615.57996947     A.U. after   12 cycles
 SCF Done:  E(UM062X) =  -1615.57996953     A.U. after    9 cycles
 Optimization completed.
    -- Stationary point found.

                          Input orientation:
 ---------------------------------------------------------------------
 Center     Atomic      Atomic             Coordinates (Angstroms)
 Number     Number       Type             X           Y           Z
 ---------------------------------------------------------------------
      1          6           0       -1.241234    0.000000    0.000000
      2          6           0        1.241234    0.000000   -0.000000
      3          6           0        0.000014   -2.150787    0.000033
      4          6           0        0.000014   -3.527788    0.000080
      5          6           0       -1.131361   -4.322881    0.272144
      6          6           0       -1.219184   -1.481154    0.253071
      7          6           0        0.659181   -5.718954   -0.159366
      8          1           0        1.271992   -6.595954   -0.311515
      9          6           0       -1.483384    0.832214    1.166261
     10          6           0       -0.658986   -5.718941    0.160433
     11          1           0       -1.271736   -6.595927    0.312910
     12          6           0        1.131458   -4.322902   -0.271606
     13          6           0        1.219237   -1.481184   -0.252893
     14          6           0        1.679469    2.247974   -1.184748
     15          6           0       -1.482320    0.315934   -1.404303
     16          6           0       -1.890276    2.896858    2.417868
     17          1           0       -2.048099    3.969047    2.407308
     18          6           0       -2.306840   -3.667507    0.562128
     19          1           0       -3.221704   -4.204026    0.786624
     20          6           0       -1.555859    1.623873   -1.978555
     21          6           0        2.337639   -2.239504   -0.540309
     22          1           0        3.283995   -1.739304   -0.718083
     23          6           0        1.482296    0.316105    1.404258
     24          6           0        1.555788    1.624103    1.978369
     25          6           0        2.306999   -3.667553   -0.561406
     26          1           0        3.221939   -4.204093   -0.785547
     27          6           0       -1.679747    2.248072    1.184469
     28          6           0       -1.468725    0.180396    2.430218
     29          1           0       -1.285407   -0.882197    2.470986
     30          6           0        1.611109   -0.772803    2.316448
     31          1           0        1.598001   -1.786816    1.948441
     32          6           0       -1.902265    2.221375    3.618402
     33          1           0       -2.073252    2.755165    4.545325
     34          6           0       -2.337513   -2.239458    0.540801
     35          1           0       -3.283840   -1.739251    0.718711
     36          6           0       -1.688621    1.761628   -3.376494
     37          1           0       -1.722542    2.764691   -3.785495
     38          6           0        1.483240    0.832101   -1.166378
     39          6           0       -1.633138    3.134149    0.050854
     40          1           0       -1.681597    4.186082    0.315012
     41          6           0       -1.805549    0.681437   -4.220003
     42          1           0       -1.927000    0.828083   -5.286303
     43          6           0       -1.550463    2.874000   -1.267446
     44          1           0       -1.535591    3.746638   -1.913403
     45          6           0        1.688574    1.762008    3.376293
     46          1           0        1.722515    2.765115    3.785184
     47          6           0       -1.676087    0.842758    3.619077
     48          1           0       -1.653884    0.289345    4.549964
     49          6           0       -1.611153   -0.773070   -2.316372
     50          1           0       -1.598061   -1.787043   -1.948258
     51          6           0        1.805526    0.681910    4.219918
     52          1           0        1.926980    0.828675    5.286202
     53          6           0        1.889845    2.896652   -2.418230
     54          1           0        2.047551    3.968861   -2.407796
     55          6           0        1.782950   -0.602685    3.671428
     56          1           0        1.897099   -1.473131    4.305802
     57          6           0        1.901818    2.221045   -3.618696
     58          1           0        2.072684    2.754755   -4.545687
     59          6           0        1.632879    3.134166   -0.051218
     60          1           0        1.681262    4.186073   -0.315489
     61          6           0       -1.782989   -0.603096   -3.671373
     62          1           0       -1.897175   -1.473609   -4.305649
     63          6           0        1.550334    2.874153    1.267118
     64          1           0        1.535512    3.746861    1.912981
     65          6           0        1.468541    0.180152   -2.430270
     66          1           0        1.285294   -0.882459   -2.470927
     67          6           0        1.675766    0.842407   -3.619213
     68          1           0        1.653560    0.288894   -4.550041
 ---------------------------------------------------------------------

 Alpha  occ. eigenvalues --  -10.71438 -10.71436 -10.68588 -10.68588 -10.68561
 Alpha  occ. eigenvalues --  -10.68561 -10.68264 -10.68264 -10.68060 -10.68060
 Alpha  occ. eigenvalues --  -10.66940 -10.66939 -10.66575 -10.66575 -10.66467
 Alpha  occ. eigenvalues --  -10.66467 -10.66029 -10.66029 -10.65895 -10.65895
 Alpha  occ. eigenvalues --  -10.65751 -10.65750 -10.65697 -10.65697 -10.65696
 Alpha  occ. eigenvalues --  -10.65696 -10.65675 -10.65674 -10.65650 -10.65650
 Alpha  occ. eigenvalues --  -10.65568 -10.65560 -10.65560 -10.65558 -10.65558
 Alpha  occ. eigenvalues --  -10.65271 -10.65271 -10.65045 -10.65045 -10.64088
 Alpha  occ. eigenvalues --  -10.63991 -10.63181  -1.12676  -1.10323  -1.10065
 Alpha  occ. eigenvalues --   -1.08468  -1.07790  -1.05922  -1.04737  -1.02602
 Alpha  occ. eigenvalues --   -1.02118  -1.00733  -1.00607  -0.97933  -0.97637
 Alpha  occ. eigenvalues --   -0.96921  -0.96250  -0.95053  -0.93471  -0.93468
 Alpha  occ. eigenvalues --   -0.92803  -0.91935  -0.87579  -0.87356  -0.84968
 Alpha  occ. eigenvalues --   -0.84716  -0.83072  -0.81451  -0.81358  -0.79862
 Alpha  occ. eigenvalues --   -0.79751  -0.79524  -0.77613  -0.76425  -0.76197
 Alpha  occ. eigenvalues --   -0.75702  -0.75461  -0.73709  -0.70238  -0.69767
 Alpha  occ. eigenvalues --   -0.69144  -0.68490  -0.67740  -0.67602  -0.66972
 Alpha  occ. eigenvalues --   -0.66820  -0.65653  -0.65357  -0.65113  -0.64864
 Alpha  occ. eigenvalues --   -0.63390  -0.63011  -0.62329  -0.62205  -0.61284
 Alpha  occ. eigenvalues --   -0.61137  -0.60733  -0.60443  -0.60109  -0.60066
 Alpha  occ. eigenvalues --   -0.59600  -0.58938  -0.58763  -0.58148  -0.57844
 Alpha  occ. eigenvalues --   -0.57618  -0.56639  -0.55813  -0.55683  -0.55636
 Alpha  occ. eigenvalues --   -0.55003  -0.54122  -0.53241  -0.52837  -0.52687
 Alpha  occ. eigenvalues --   -0.52524  -0.52304  -0.52239  -0.51259  -0.51016
 Alpha  occ. eigenvalues --   -0.50948  -0.50924  -0.50474  -0.49466  -0.49175
 Alpha  occ. eigenvalues --   -0.48940  -0.48568  -0.47903  -0.44585  -0.44280
 Alpha  occ. eigenvalues --   -0.44088  -0.42937  -0.40546  -0.40400  -0.39290
 Alpha  occ. eigenvalues --   -0.38122  -0.37665  -0.37226  -0.32807
 Alpha virt. eigenvalues --   -0.19090  -0.15634  -0.15592  -0.14478  -0.10486
 Alpha virt. eigenvalues --   -0.09920  -0.08830  -0.08566  -0.08342  -0.07586
 Alpha virt. eigenvalues --   -0.07552  -0.07483  -0.06638  -0.06384  -0.06172

  Beta  occ. eigenvalues --  -10.71312 -10.71312 -10.68603 -10.68603 -10.68587
  Beta  occ. eigenvalues --  -10.68586 -10.68223 -10.68223 -10.68022 -10.68021
  Beta  occ. eigenvalues --  -10.66953 -10.66953 -10.66564 -10.66564 -10.66451
  Beta  occ. eigenvalues --  -10.66451 -10.65996 -10.65996 -10.65896 -10.65896
  Beta  occ. eigenvalues --  -10.65731 -10.65731 -10.65712 -10.65712 -10.65676
  Beta  occ. eigenvalues --  -10.65676 -10.65660 -10.65660 -10.65631 -10.65631
  Beta  occ. eigenvalues --  -10.65569 -10.65569 -10.65562 -10.65562 -10.65545
  Beta  occ. eigenvalues --  -10.65281 -10.65281 -10.65041 -10.65041 -10.64088
  Beta  occ. eigenvalues --  -10.63990 -10.63181  -1.12508  -1.10224  -1.09908
  Beta  occ. eigenvalues --   -1.08345  -1.07680  -1.05761  -1.04623  -1.02467
  Beta  occ. eigenvalues --   -1.01996  -1.00579  -1.00436  -0.97830  -0.97543
  Beta  occ. eigenvalues --   -0.96792  -0.96140  -0.95001  -0.93409  -0.93367
  Beta  occ. eigenvalues --   -0.92700  -0.91838  -0.87226  -0.87079  -0.84890
  Beta  occ. eigenvalues --   -0.84648  -0.82994  -0.81332  -0.81265  -0.79774
  Beta  occ. eigenvalues --   -0.79678  -0.79452  -0.77489  -0.76258  -0.76043
  Beta  occ. eigenvalues --   -0.75534  -0.75425  -0.73580  -0.70125  -0.69615
  Beta  occ. eigenvalues --   -0.69008  -0.68387  -0.67669  -0.67544  -0.66847
  Beta  occ. eigenvalues --   -0.66722  -0.65572  -0.65220  -0.64978  -0.64751
  Beta  occ. eigenvalues --   -0.63106  -0.62969  -0.62242  -0.62117  -0.60983
  Beta  occ. eigenvalues --   -0.60952  -0.60588  -0.60311  -0.60056  -0.60006
  Beta  occ. eigenvalues --   -0.59475  -0.58787  -0.58683  -0.58062  -0.57579
  Beta  occ. eigenvalues --   -0.57388  -0.56487  -0.55620  -0.55571  -0.55415
  Beta  occ. eigenvalues --   -0.54986  -0.53752  -0.53086  -0.52747  -0.52596
  Beta  occ. eigenvalues --   -0.52476  -0.52206  -0.52127  -0.50970  -0.50945
  Beta  occ. eigenvalues --   -0.50825  -0.50446  -0.49742  -0.49093  -0.49054
  Beta  occ. eigenvalues --   -0.48796  -0.48507  -0.47532  -0.44005  -0.43913
  Beta  occ. eigenvalues --   -0.43330  -0.42597  -0.40336  -0.40099  -0.38660
  Beta  occ. eigenvalues --   -0.37878  -0.37404  -0.37030
  Beta virt. eigenvalues --   -0.22896  -0.17185  -0.15527  -0.15342  -0.14488
  Beta virt. eigenvalues --   -0.10283  -0.09525  -0.08462  -0.08361  -0.08320
  Beta virt. eigenvalues --   -0.07576  -0.07555  -0.07257  -0.06617  -0.06346

 Mulliken charges and spin densities:
               1          2
     1  C    0.000198   0.254364
     2  C    0.000355   0.254375
     3  C    0.196604   0.007118
     4  C    0.111062   0.000948
     5  C    0.111280   0.005656
     6  C    0.046063  -0.025468
     7  C   -0.305423   0.001490
     8  H    0.176431  -0.000068
     9  C    0.245350  -0.015497
    10  C   -0.305228   0.001486
    11  H    0.176431  -0.000068
    12  C    0.111137   0.005656
    13  C    0.045872  -0.025474
    14  C    0.245932   0.058348
    15  C    0.313449  -0.025573
    16  C   -0.232882  -0.031772
    17  H    0.163811   0.000951
    18  C   -0.454395  -0.001482
    19  H    0.175743   0.000433
    20  C    0.201486   0.095663
    21  C   -0.141401   0.016786
    22  H    0.174624  -0.000399
    23  C    0.313385  -0.025583
    24  C    0.201418   0.095672
    25  C   -0.454646  -0.001480
    26  H    0.175742   0.000433
    27  C    0.246373   0.058359
    28  C   -0.094218   0.042817
    29  H    0.203091  -0.002607
    30  C   -0.281016   0.029803
    31  H    0.225495  -0.001310
    32  C   -0.357343   0.054731
    33  H    0.181489  -0.002883
    34  C   -0.141351   0.016796
    35  H    0.174631  -0.000399
    36  C   -0.078013  -0.044838
    37  H    0.163398   0.001315
    38  C    0.245404  -0.015499
    39  C   -0.265316   0.063101
    40  H    0.167482  -0.004204
    41  C   -0.238945   0.049259
    42  H    0.180056  -0.002358
    43  C   -0.244748   0.023366
    44  H    0.159565  -0.001432
    45  C   -0.078080  -0.044848
    46  H    0.163399   0.001316
    47  C   -0.141778  -0.016000
    48  H    0.169586  -0.000892
    49  C   -0.280780   0.029798
    50  H    0.225505  -0.001310
    51  C   -0.238910   0.049271
    52  H    0.180056  -0.002358
    53  C   -0.232824  -0.031776
    54  H    0.163810   0.000951
    55  C   -0.298202  -0.026004
    56  H    0.175072   0.000663
    57  C   -0.357415   0.054726
    58  H    0.181492  -0.002883
    59  C   -0.265179   0.063117
    60  H    0.167481  -0.004205
    61  C   -0.298531  -0.026015
    62  H    0.175076   0.000663
    63  C   -0.244602   0.023375
    64  H    0.159565  -0.001432
    65  C   -0.094297   0.042796
    66  H    0.203100  -0.002608
    67  C   -0.141566  -0.015987
    68  H    0.169588  -0.000893
 Sum of Mulliken charges =   1.00000   1.00000

 Dipole moment (field-independent basis, Debye):
    X=             -0.0003    Y=              2.4111    Z=              0.0005  Tot=              2.4111
 Quadrupole moment (field-independent basis, Debye-Ang):
   XX=           -222.4700   YY=           -175.0418   ZZ=           -176.4056
   XY=             -0.0023   XZ=             -1.9505   YZ=             -0.0032

 Normal termination of Gaussian 16 at Fri Nov  8 19:41:45 2024.
