 Gaussian 16, Revision A.03,
 Gaussian 16:  ES64L-G16RevA.03 25-Dec-2016

 --------------------------------------------
 #p opt UM062X/6-311+G** nosymm int=superfine
 --------------------------------------------

 -------------------
 Title Card Required
 -------------------
 Symbolic Z-matrix:
 Charge =  0 Multiplicity = 1

 SCF Done:  E(UM062X) =  -582.422151891     A.U. after   10 cycles
 SCF Done:  E(UM062X) =  -582.423859844     A.U. after    8 cycles
 SCF Done:  E(UM062X) =  -582.424201430     A.U. after    8 cycles
 Optimization completed.
    -- Stationary point found.

                          Input orientation:
 ---------------------------------------------------------------------
 Center     Atomic      Atomic             Coordinates (Angstroms)
 Number     Number       Type             X           Y           Z
 ---------------------------------------------------------------------
      1         14           0       -1.869819    0.000000    0.000000
      2         14           0        1.869819    0.000000    0.000000
      3          1           0        2.296211   -1.412934   -0.000057
      4          1           0       -2.296221   -0.706344    1.223715
      5          1           0        2.296328    0.706517   -1.223578
      6          1           0        2.296228    0.706396    1.223683
      7          1           0       -2.296214    1.412934   -0.000115
      8          1           0       -2.296333   -0.706570   -1.223546
 ---------------------------------------------------------------------

 Alpha  occ. eigenvalues --  -67.01539 -67.01539  -5.56378  -5.56376  -3.87596
 Alpha  occ. eigenvalues --   -3.87595  -3.87400  -3.87400  -3.87400  -3.87400
 Alpha  occ. eigenvalues --   -0.61084  -0.60283  -0.41783  -0.41783  -0.41524
 Alpha  occ. eigenvalues --   -0.41523  -0.24510
 Alpha virt. eigenvalues --   -0.07487   0.02174   0.02912   0.02912   0.03547
 Alpha virt. eigenvalues --    0.05309   0.05325   0.05325   0.07186   0.07186
 Alpha virt. eigenvalues --    0.07240   0.09028   0.09028   0.13712   0.16669

  Beta  occ. eigenvalues --  -67.01539 -67.01539  -5.56378  -5.56376  -3.87596
  Beta  occ. eigenvalues --   -3.87595  -3.87400  -3.87400  -3.87400  -3.87400
  Beta  occ. eigenvalues --   -0.61084  -0.60283  -0.41783  -0.41783  -0.41524
  Beta  occ. eigenvalues --   -0.41523  -0.24510
  Beta virt. eigenvalues --   -0.07487   0.02174   0.02912   0.02912   0.03547
  Beta virt. eigenvalues --    0.05309   0.05325   0.05325   0.07186   0.07186
  Beta virt. eigenvalues --    0.07240   0.09028   0.09028   0.13712   0.16669

 Mulliken charges and spin densities:
               1          2
     1  Si   0.279439  -0.000000
     2  Si   0.279439   0.000000
     3  H   -0.093146   0.000000
     4  H   -0.093146   0.000000
     5  H   -0.093147   0.000000
     6  H   -0.093146   0.000000
     7  H   -0.093146  -0.000000
     8  H   -0.093147  -0.000000
 Sum of Mulliken charges =  -0.00000  -0.00000

 Dipole moment (field-independent basis, Debye):
    X=              0.0000    Y=             -0.0000    Z=              0.0000  Tot=              0.0000
 Quadrupole moment (field-independent basis, Debye-Ang):
   XX=            -29.3324   YY=            -31.9640   ZZ=            -31.9640
   XY=              0.0000   XZ=              0.0000   YZ=              0.0000

 Normal termination of Gaussian 16 at Mon Apr 21 20:17:52 2025.
