 Gaussian 16, Revision A.03,
 Gaussian 16:  ES64L-G16RevA.03 25-Dec-2016

 --------------------------------------------
 #p opt UM062X/6-311+G** nosymm int=superfine
 --------------------------------------------

 -------------------
 Title Card Required
 -------------------
 Symbolic Z-matrix:
 Charge =  0 Multiplicity = 1

 SCF Done:  E(UM062X) =  -581.219730076     A.U. after    9 cycles
 SCF Done:  E(UM062X) =  -581.220022140     A.U. after    8 cycles
 SCF Done:  E(UM062X) =  -581.220105669     A.U. after    9 cycles
 SCF Done:  E(UM062X) =  -581.220009194     A.U. after    9 cycles
 SCF Done:  E(UM062X) =  -581.220106086     A.U. after    9 cycles
 SCF Done:  E(UM062X) =  -581.220111961     A.U. after    8 cycles
 Optimization completed.
    -- Stationary point found.

                          Input orientation:
 ---------------------------------------------------------------------
 Center     Atomic      Atomic             Coordinates (Angstroms)
 Number     Number       Type             X           Y           Z
 ---------------------------------------------------------------------
      1         14           0       -1.312518    0.000000    0.000000
      2         14           0        1.312518    0.000000    0.000000
      3          1           0       -2.057308   -1.268032    0.000671
      4          1           0        2.057309    1.268032   -0.000652
      5          1           0       -2.057359    1.268002    0.000053
      6          1           0        2.057359   -1.268002    0.000356
 ---------------------------------------------------------------------

 Alpha  occ. eigenvalues --  -67.02871 -67.02871  -5.57491  -5.57490  -3.88718
 Alpha  occ. eigenvalues --   -3.88715  -3.88546  -3.88531  -3.88491  -3.88489
 Alpha  occ. eigenvalues --   -0.61470  -0.57454  -0.43954  -0.42769  -0.34827
 Alpha  occ. eigenvalues --   -0.22242
 Alpha virt. eigenvalues --   -0.06905  -0.02511   0.02215   0.03174   0.03822
 Alpha virt. eigenvalues --    0.04317   0.04857   0.05259   0.05562   0.07071
 Alpha virt. eigenvalues --    0.07421   0.07896   0.12080   0.21396   0.26035

  Beta  occ. eigenvalues --  -67.02871 -67.02871  -5.57491  -5.57490  -3.88718
  Beta  occ. eigenvalues --   -3.88715  -3.88546  -3.88531  -3.88491  -3.88489
  Beta  occ. eigenvalues --   -0.61470  -0.57454  -0.43954  -0.42769  -0.34827
  Beta  occ. eigenvalues --   -0.22242
  Beta virt. eigenvalues --   -0.06905  -0.02511   0.02215   0.03174   0.03822
  Beta virt. eigenvalues --    0.04317   0.04857   0.05259   0.05562   0.07071
  Beta virt. eigenvalues --    0.07421   0.07896   0.12080   0.21396   0.26035

 Mulliken charges and spin densities:
               1          2
     1  Si   0.113333  -0.000000
     2  Si   0.113333   0.000000
     3  H   -0.056668   0.000000
     4  H   -0.056668   0.000000
     5  H   -0.056665   0.000000
     6  H   -0.056665  -0.000000
 Sum of Mulliken charges =  -0.00000  -0.00000

 Dipole moment (field-independent basis, Debye):
    X=              0.0000    Y=              0.0000    Z=              0.0000  Tot=              0.0000
 Quadrupole moment (field-independent basis, Debye-Ang):
   XX=            -26.6956   YY=            -29.4572   ZZ=            -33.9539
   XY=             -0.0001   XZ=             -0.0003   YZ=             -0.0014

 Normal termination of Gaussian 16 at Mon Apr 21 20:30:15 2025.
