 Gaussian 16, Revision A.03,
 Gaussian 16:  ES64L-G16RevA.03 25-Dec-2016

 --------------------------------------------
 #p opt UM062X/6-311+G** nosymm int=superfine
 --------------------------------------------

 -------------------
 Title Card Required
 -------------------
 Symbolic Z-matrix:
 Charge =  0 Multiplicity = 1

 SCF Done:  E(UM062X) =  -381.019540223     A.U. after   14 cycles
 SCF Done:  E(UM062X) =  -381.021760987     A.U. after   12 cycles
 SCF Done:  E(UM062X) =  -381.022066384     A.U. after   13 cycles
 SCF Done:  E(UM062X) =  -381.020998389     A.U. after   16 cycles
 SCF Done:  E(UM062X) =  -381.022127184     A.U. after   12 cycles
 SCF Done:  E(UM062X) =  -381.021904987     A.U. after   16 cycles
 SCF Done:  E(UM062X) =  -381.022159101     A.U. after   14 cycles
 SCF Done:  E(UM062X) =  -381.022160642     A.U. after   10 cycles
 SCF Done:  E(UM062X) =  -381.022161637     A.U. after   10 cycles
 Optimization completed.
    -- Stationary point found.

                          Input orientation:
 ---------------------------------------------------------------------
 Center     Atomic      Atomic             Coordinates (Angstroms)
 Number     Number       Type             X           Y           Z
 ---------------------------------------------------------------------
      1          6           0       -1.280452    0.000000    0.000000
      2         15           0        1.280452    0.000000    0.000000
      3          1           0       -1.813625   -0.946270    0.006556
      4          1           0        1.190861   -1.418194    0.009671
      5          1           0       -1.808209    0.948652   -0.006275
 ---------------------------------------------------------------------

 Alpha  occ. eigenvalues --  -78.06380 -10.63438  -6.88273  -4.99837  -4.99543
 Alpha  occ. eigenvalues --   -4.99526  -0.76719  -0.66403  -0.52206  -0.39148
 Alpha  occ. eigenvalues --   -0.33792  -0.25558
 Alpha virt. eigenvalues --   -0.10918  -0.05442   0.02184   0.04328   0.04648
 Alpha virt. eigenvalues --    0.05755   0.06555   0.07141   0.10032   0.10917
 Alpha virt. eigenvalues --    0.14136   0.18617   0.20282   0.30316   0.31930

  Beta  occ. eigenvalues --  -78.06380 -10.63438  -6.88273  -4.99837  -4.99543
  Beta  occ. eigenvalues --   -4.99526  -0.76719  -0.66403  -0.52206  -0.39148
  Beta  occ. eigenvalues --   -0.33792  -0.25558
  Beta virt. eigenvalues --   -0.10918  -0.05442   0.02184   0.04328   0.04648
  Beta virt. eigenvalues --    0.05755   0.06555   0.07141   0.10032   0.10917
  Beta virt. eigenvalues --    0.14136   0.18617   0.20282   0.30316   0.31930

 Mulliken charges and spin densities:
               1          2
     1  C   -0.441390   0.000002
     2  P    0.085346  -0.000002
     3  H    0.185567  -0.000000
     4  H   -0.015692   0.000000
     5  H    0.186169  -0.000000
 Sum of Mulliken charges =  -0.00000  -0.00000

 Dipole moment (field-independent basis, Debye):
    X=             -1.1131    Y=             -0.6001    Z=              0.0044  Tot=              1.2646
 Quadrupole moment (field-independent basis, Debye-Ang):
   XX=            -17.5369   YY=            -20.3848   ZZ=            -24.8037
   XY=             -1.2381   XZ=              0.0085   YZ=             -0.0301

 Normal termination of Gaussian 16 at Mon Apr 21 19:10:44 2025.
