 Gaussian 16, Revision A.03,
 Gaussian 16:  ES64L-G16RevA.03 25-Dec-2016

 --------------------------------------------
 #p opt UM062X/6-311+G** nosymm int=superfine
 --------------------------------------------

 -------------------
 Title Card Required
 -------------------
 Symbolic Z-matrix:
 Charge =  0 Multiplicity = 1

 SCF Done:  E(UM062X) =  -382.309831253     A.U. after   12 cycles
 SCF Done:  E(UM062X) =  -382.317765029     A.U. after   10 cycles
 SCF Done:  E(UM062X) =  -382.320824597     A.U. after   11 cycles
 SCF Done:  E(UM062X) =  -382.320848979     A.U. after    9 cycles
 SCF Done:  E(UM062X) =  -382.320865550     A.U. after    9 cycles
 SCF Done:  E(UM062X) =  -382.320867891     A.U. after    8 cycles
 Optimization completed.
    -- Stationary point found.

                          Input orientation:
 ---------------------------------------------------------------------
 Center     Atomic      Atomic             Coordinates (Angstroms)
 Number     Number       Type             X           Y           Z
 ---------------------------------------------------------------------
      1          6           0       -1.481264    0.000000    0.000000
      2         15           0        1.481264    0.000000    0.000000
      3          1           0        1.452441   -1.418275    0.030424
      4          1           0       -1.633465    1.044383    0.234182
      5          1           0        1.452447    0.084142    1.416081
      6          1           0       -1.633455   -0.313078   -1.023503
      7          1           0       -1.648014   -0.726057    0.783655
 ---------------------------------------------------------------------

 Alpha  occ. eigenvalues --  -78.03253 -10.57993  -6.85583  -4.97110  -4.97052
 Alpha  occ. eigenvalues --   -4.96861  -0.77725  -0.69348  -0.49441  -0.49373
 Alpha  occ. eigenvalues --   -0.43595  -0.34778  -0.27235
 Alpha virt. eigenvalues --   -0.07476   0.01845   0.04005   0.04313   0.04677
 Alpha virt. eigenvalues --    0.06420   0.06851   0.07335   0.07485   0.12453
 Alpha virt. eigenvalues --    0.17535   0.18825   0.19059   0.24779   0.30075

  Beta  occ. eigenvalues --  -78.03253 -10.57993  -6.85583  -4.97110  -4.97052
  Beta  occ. eigenvalues --   -4.96861  -0.77725  -0.69348  -0.49441  -0.49373
  Beta  occ. eigenvalues --   -0.43595  -0.34778  -0.27235
  Beta virt. eigenvalues --   -0.07476   0.01845   0.04005   0.04313   0.04677
  Beta virt. eigenvalues --    0.06420   0.06851   0.07335   0.07485   0.12453
  Beta virt. eigenvalues --    0.17535   0.18825   0.19059   0.24779   0.30075

 Mulliken charges and spin densities:
               1          2
     1  C   -0.548292  -0.000000
     2  P   -0.027648   0.000000
     3  H    0.010766  -0.000000
     4  H    0.185306  -0.000000
     5  H    0.010779  -0.000000
     6  H    0.185326  -0.000000
     7  H    0.183764  -0.000000
 Sum of Mulliken charges =  -0.00000   0.00000

 Dipole moment (field-independent basis, Debye):
    X=             -0.9227    Y=             -0.5285    Z=              0.5731  Tot=              1.2079
 Quadrupole moment (field-independent basis, Debye-Ang):
   XX=            -22.6375   YY=            -22.2017   ZZ=            -22.3158
   XY=             -1.1023   XZ=              1.1954   YZ=              0.7048

 Normal termination of Gaussian 16 at Mon Apr 21 19:04:35 2025.
