 Gaussian 16, Revision A.03,
 Gaussian 16:  ES64L-G16RevA.03 25-Dec-2016

 ---------------------------------------------------
 #p UM062X/6-311+G** force int=superfine pop=saveNBO
 ---------------------------------------------------

 -------------------
 Title Card Required
 -------------------
 Symbolic Z-matrix:
 Charge =  0 Multiplicity = 1

                         Standard orientation:
 ---------------------------------------------------------------------
 Center     Atomic      Atomic             Coordinates (Angstroms)
 Number     Number       Type             X           Y           Z
 ---------------------------------------------------------------------
      1          8           0        0.000000    0.000000    0.718562
      2          8           0        0.000000    0.000000   -0.718562
 ---------------------------------------------------------------------

 SCF Done:  E(UM062X) =  -150.187317451     A.U. after    9 cycles

 Unable to determine electronic state:  partially filled degenerate orbitals.
 Alpha  occ. eigenvalues --  -19.81804 -19.81776  -1.28413  -0.98874  -0.58619
 Alpha  occ. eigenvalues --   -0.56612  -0.52776  -0.41110
 Alpha virt. eigenvalues --   -0.19332   0.02308   0.10580   0.14816   0.15443
 Alpha virt. eigenvalues --    0.15700   0.20836   0.21339   0.21695   0.34584
 Alpha virt. eigenvalues --    0.97950   0.98776   0.99063   1.05905   1.06402

  Beta  occ. eigenvalues --  -19.81804 -19.81776  -1.28413  -0.98874  -0.58619
  Beta  occ. eigenvalues --   -0.56612  -0.52776  -0.41110
  Beta virt. eigenvalues --   -0.19332   0.02308   0.10580   0.14816   0.15443
  Beta virt. eigenvalues --    0.15700   0.20836   0.21339   0.21695   0.34584
  Beta virt. eigenvalues --    0.97950   0.98776   0.99063   1.05905   1.06402

 Mulliken charges and spin densities:
               1          2
     1  O   -0.000000   0.000000
     2  O   -0.000000   0.000000
 Sum of Mulliken charges =  -0.00000   0.00000

 Dipole moment (field-independent basis, Debye):
    X=             -0.0000    Y=              0.0000    Z=              0.0000  Tot=              0.0000
 Quadrupole moment (field-independent basis, Debye-Ang):
   XX=             -9.6488   YY=            -11.4115   ZZ=            -10.4393
   XY=              0.0000   XZ=              0.0000   YZ=              0.0000

 Summary of Natural Population Analysis:

                                       Natural Population
                Natural  -----------------------------------------------
    Atom  No    Charge         Core      Valence    Rydberg      Total
 -----------------------------------------------------------------------
      O    1    0.00000      0.99999     2.99263    0.00738     4.00000
      O    2   -0.00000      0.99999     2.99263    0.00738     4.00000
 =======================================================================
   * Total *   -0.00000      1.99997     5.98526    0.01477     8.00000

 Normal termination of Gaussian 16 at Mon Apr 21 19:53:01 2025.
