 Gaussian 16, Revision A.03,
 Gaussian 16:  ES64L-G16RevA.03 25-Dec-2016

 --------------------------------------------
 #p opt UM062X/6-311+G** nosymm int=superfine
 --------------------------------------------

 -------------------
 Title Card Required
 -------------------
 Symbolic Z-matrix:
 Charge =  1 Multiplicity = 2

 SCF Done:  E(UM062X) =  -579.690149745     A.U. after   15 cycles
 SCF Done:  E(UM062X) =  -579.694738824     A.U. after   13 cycles
 SCF Done:  E(UM062X) =  -579.699760696     A.U. after   15 cycles
 SCF Done:  E(UM062X) =  -579.699854770     A.U. after   12 cycles
 SCF Done:  E(UM062X) =  -579.699934378     A.U. after   12 cycles
 SCF Done:  E(UM062X) =  -579.699987183     A.U. after   11 cycles
 SCF Done:  E(UM062X) =  -579.700024644     A.U. after   12 cycles
 SCF Done:  E(UM062X) =  -579.700039776     A.U. after   12 cycles
 SCF Done:  E(UM062X) =  -579.700042454     A.U. after    9 cycles
 SCF Done:  E(UM062X) =  -579.700042535     A.U. after    9 cycles
 Optimization completed.
    -- Stationary point found.

                          Input orientation:
 ---------------------------------------------------------------------
 Center     Atomic      Atomic             Coordinates (Angstroms)
 Number     Number       Type             X           Y           Z
 ---------------------------------------------------------------------
      1         14           0       -1.727975    0.000000    0.000000
      2         14           0        1.727975    0.000000    0.000000
      3          1           0       -1.910554   -1.494399    0.000001
      4          1           0        1.910516    1.494401    0.000001
 ---------------------------------------------------------------------

 Alpha  occ. eigenvalues --  -67.27206 -67.27206  -5.81376  -5.81376  -4.12489
 Alpha  occ. eigenvalues --   -4.12489  -4.12415  -4.12415  -4.11754  -4.11754
 Alpha  occ. eigenvalues --   -0.77269  -0.75384  -0.53585  -0.53071  -0.43979
 Alpha virt. eigenvalues --   -0.29341  -0.26822  -0.26315  -0.11804  -0.10301
 Alpha virt. eigenvalues --   -0.08977  -0.08653  -0.08224  -0.07353  -0.05797
 Alpha virt. eigenvalues --   -0.05741  -0.05684  -0.02969   0.12484   0.14018

  Beta  occ. eigenvalues --  -67.26935 -67.26935  -5.81286  -5.81285  -4.12346
  Beta  occ. eigenvalues --   -4.12346  -4.11812  -4.11812  -4.11592  -4.11592
  Beta  occ. eigenvalues --   -0.75276  -0.73613  -0.53152  -0.51677
  Beta virt. eigenvalues --   -0.29354  -0.28822  -0.26224  -0.21677  -0.12950
  Beta virt. eigenvalues --   -0.10339  -0.08940  -0.08837  -0.08212  -0.06973
  Beta virt. eigenvalues --   -0.05641  -0.05494  -0.05335  -0.02617   0.11273

 Mulliken charges and spin densities:
               1          2
     1  Si   0.571439   0.510337
     2  Si   0.571443   0.510331
     3  H   -0.071441  -0.010334
     4  H   -0.071442  -0.010334
 Sum of Mulliken charges =   1.00000   1.00000

 Dipole moment (field-independent basis, Debye):
    X=              0.0000    Y=              0.0000    Z=              0.0000  Tot=              0.0000
 Quadrupole moment (field-independent basis, Debye-Ang):
   XX=             -5.3001   YY=            -27.2540   ZZ=            -19.6715
   XY=              1.7394   XZ=              0.0000   YZ=             -0.0000

 Normal termination of Gaussian 16 at Mon Apr 21 20:40:35 2025.
