 Gaussian 16, Revision A.03,
 Gaussian 16:  ES64L-G16RevA.03 25-Dec-2016

 ---------------------------------------
 #p UM062X/6-311+G** force int=superfine
 ---------------------------------------

 -------------------
 Title Card Required
 -------------------
 Symbolic Z-matrix:
 Charge =  1 Multiplicity = 2

                         Standard orientation:
 ---------------------------------------------------------------------
 Center     Atomic      Atomic             Coordinates (Angstroms)
 Number     Number       Type             X           Y           Z
 ---------------------------------------------------------------------
      1          6           0        0.532441    0.818837   -1.725861
      2          6           0       -0.532444   -0.818832    1.725862
      3          1           0       -1.439522   -1.218278    1.287825
      4          1           0        0.547303   -0.150294   -2.210404
      5          1           0       -0.547354    0.149843    2.211317
      6          1           0        0.368291   -1.420846    1.747530
      7          1           0        1.439429    1.218481   -1.287820
      8          1           0       -0.368129    1.421065   -1.748455
 ---------------------------------------------------------------------

 SCF Done:  E(UM062X) =  -79.3180214419     A.U. after   10 cycles

 The electronic state is 2-A.
 Alpha  occ. eigenvalues --  -10.83526 -10.83525  -1.02092  -1.01759  -0.73145
 Alpha  occ. eigenvalues --   -0.73144  -0.73033  -0.73032  -0.47476
 Alpha virt. eigenvalues --   -0.37608  -0.12739  -0.10156  -0.09421  -0.09421
 Alpha virt. eigenvalues --   -0.06218  -0.06218  -0.04387  -0.02917  -0.00058
 Alpha virt. eigenvalues --   -0.00055   0.01372   0.01374   0.02687   0.08722

  Beta  occ. eigenvalues --  -10.83306 -10.83306  -0.99436  -0.99228  -0.72622
  Beta  occ. eigenvalues --   -0.72622  -0.72492  -0.72491
  Beta virt. eigenvalues --   -0.32562  -0.26643  -0.16631  -0.10859  -0.10857
  Beta virt. eigenvalues --   -0.10222  -0.06209  -0.06208  -0.05264  -0.01964
  Beta virt. eigenvalues --   -0.00292  -0.00289   0.01633   0.01636   0.02456

 Mulliken charges and spin densities:
               1          2
     1  C   -0.249956   0.557179
     2  C   -0.249955   0.557180
     3  H    0.250000  -0.019062
     4  H    0.249965  -0.019060
     5  H    0.249985  -0.019063
     6  H    0.249970  -0.019056
     7  H    0.250001  -0.019062
     8  H    0.249990  -0.019058
 Sum of Mulliken charges =   1.00000   1.00000

 Dipole moment (field-independent basis, Debye):
    X=              0.0000    Y=             -0.0000    Z=             -0.0000  Tot=              0.0001
 Quadrupole moment (field-independent basis, Debye-Ang):
   XX=             -9.7710   YY=             -7.9382   ZZ=              2.9915
   XY=              2.0659   XZ=             -4.3536   YZ=             -6.6937

 Normal termination of Gaussian 16 at Wed Nov 13 13:06:36 2024.
