 Gaussian 16, Revision A.03,
 Gaussian 16:  ES64L-G16RevA.03 25-Dec-2016

 --------------------------------------------
 #p opt UM062X/6-311+G** nosymm int=superfine
 --------------------------------------------

 -------------------
 Title Card Required
 -------------------
 Symbolic Z-matrix:
 Charge =  1 Multiplicity = 2

 SCF Done:  E(UM062X) =  -77.2420519406     A.U. after   10 cycles
 SCF Done:  E(UM062X) =  -77.3129159839     A.U. after   10 cycles
 SCF Done:  E(UM062X) =  -77.3894376172     A.U. after   10 cycles
 SCF Done:  E(UM062X) =  -77.4052927503     A.U. after   10 cycles
 SCF Done:  E(UM062X) =  -77.4191546990     A.U. after    9 cycles
 SCF Done:  E(UM062X) =  -77.4253787885     A.U. after    9 cycles
 SCF Done:  E(UM062X) =  -77.4255080500     A.U. after    8 cycles
 Optimization completed.
    -- Stationary point found.

                          Input orientation:
 ---------------------------------------------------------------------
 Center     Atomic      Atomic             Coordinates (Angstroms)
 Number     Number       Type             X           Y           Z
 ---------------------------------------------------------------------
      1          6           0       -0.417066    0.000000    0.000000
      2          6           0        0.417066    0.000000    0.000000
      3          1           0       -1.244414   -0.779014   -0.000000
      4          1           0       -1.240557    0.784515   -0.000000
      5          1           0        1.244414    0.779014    0.000000
      6          1           0        1.240557   -0.784515    0.000000
 ---------------------------------------------------------------------

 Alpha  occ. eigenvalues --  -10.83092 -10.77435  -1.25001  -0.96069  -0.90391
 Alpha  occ. eigenvalues --   -0.88678  -0.78151  -0.60998
 Alpha virt. eigenvalues --   -0.19318  -0.15495  -0.13842  -0.12899  -0.11379
 Alpha virt. eigenvalues --   -0.09103  -0.07670  -0.06355  -0.01915  -0.00125
 Alpha virt. eigenvalues --    0.00070   0.03092   0.16118   0.17619   0.19643

  Beta  occ. eigenvalues --  -10.83165 -10.77477  -1.24280  -0.91356  -0.86632
  Beta  occ. eigenvalues --   -0.85795  -0.78018
  Beta virt. eigenvalues --   -0.40422  -0.17430  -0.15307  -0.13470  -0.12827
  Beta virt. eigenvalues --   -0.11091  -0.08964  -0.04704  -0.03428  -0.01588
  Beta virt. eigenvalues --    0.00765   0.01032   0.03997   0.15458   0.17335

 Mulliken charges and spin densities:
               1          2
     1  C   -0.139646   0.085365
     2  C   -0.139646   0.085365
     3  H    0.319723   0.206235
     4  H    0.319923   0.208400
     5  H    0.319723   0.206235
     6  H    0.319923   0.208400
 Sum of Mulliken charges =   1.00000   1.00000

 Dipole moment (field-independent basis, Debye):
    X=             -0.0000    Y=              0.0000    Z=              0.0000  Tot=              0.0000
 Quadrupole moment (field-independent basis, Debye-Ang):
   XX=             -2.6327   YY=             -7.5935   ZZ=            -11.6611
   XY=             -0.0140   XZ=              0.0000   YZ=             -0.0000

 Normal termination of Gaussian 16 at Tue Nov 19 10:35:25 2024.
