 Gaussian 16, Revision A.03,
 Gaussian 16:  ES64L-G16RevA.03 25-Dec-2016

 --------------------------------------------
 #p opt UM062X/6-311+G** nosymm int=superfine
 --------------------------------------------

 -------------------
 Title Card Required
 -------------------
 Symbolic Z-matrix:
 Charge =  1 Multiplicity = 2

 SCF Done:  E(UM062X) =  -79.3283091091     A.U. after   10 cycles
 SCF Done:  E(UM062X) =  -79.3287068212     A.U. after    9 cycles
 SCF Done:  E(UM062X) =  -79.3287074369     A.U. after    8 cycles
 Optimization completed.
    -- Stationary point found.

                          Input orientation:
 ---------------------------------------------------------------------
 Center     Atomic      Atomic             Coordinates (Angstroms)
 Number     Number       Type             X           Y           Z
 ---------------------------------------------------------------------
      1          6           0       -1.697740    0.000000    0.000000
      2          6           0        1.697740    0.000000    0.000000
      3          1           0        1.736704   -0.937603    0.542654
      4          1           0       -1.735336   -0.938706   -0.540837
      5          1           0        1.736137    0.938797    0.540625
      6          1           0        1.735374   -0.001161   -1.083357
      7          1           0       -1.736747    0.937698   -0.542487
      8          1           0       -1.736132    0.000936    1.083332
 ---------------------------------------------------------------------

 Alpha  occ. eigenvalues --  -10.84520 -10.84518  -1.03180  -1.02357  -0.74050
 Alpha  occ. eigenvalues --   -0.74050  -0.73691  -0.73691  -0.50354
 Alpha virt. eigenvalues --   -0.36623  -0.13470  -0.10212  -0.10010  -0.10010
 Alpha virt. eigenvalues --   -0.06246  -0.06246  -0.04748  -0.03253  -0.01251
 Alpha virt. eigenvalues --   -0.01248   0.01273   0.01275   0.04002   0.07975

  Beta  occ. eigenvalues --  -10.84314 -10.84314  -1.00452  -0.99906  -0.73542
  Beta  occ. eigenvalues --   -0.73541  -0.73175  -0.73175
  Beta virt. eigenvalues --   -0.32667  -0.26243  -0.15607  -0.11140  -0.11139
  Beta virt. eigenvalues --   -0.10097  -0.06337  -0.06337  -0.05101  -0.02338
  Beta virt. eigenvalues --   -0.01599  -0.01596   0.01562   0.01564   0.04595

 Mulliken charges and spin densities:
               1          2
     1  C   -0.266407   0.562025
     2  C   -0.266407   0.562026
     3  H    0.255494  -0.020667
     4  H    0.255451  -0.020673
     5  H    0.255475  -0.020671
     6  H    0.255438  -0.020687
     7  H    0.255495  -0.020667
     8  H    0.255461  -0.020686
 Sum of Mulliken charges =   1.00000   1.00000

 Dipole moment (field-independent basis, Debye):
    X=             -0.0000    Y=             -0.0000    Z=             -0.0001  Tot=              0.0001
 Quadrupole moment (field-independent basis, Debye-Ang):
   XX=              2.7458   YY=            -11.0741   ZZ=            -11.0743
   XY=             -0.0015   XZ=              0.0008   YZ=             -0.0000

 Normal termination of Gaussian 16 at Wed Nov 13 12:46:55 2024.
