 Gaussian 16, Revision A.03,
 Gaussian 16:  ES64L-G16RevA.03 25-Dec-2016

 --------------------------------------------
 #p opt UM062X/6-311+G** nosymm int=superfine
 --------------------------------------------

 -------------------
 Title Card Required
 -------------------
 Symbolic Z-matrix:
 Charge =  1 Multiplicity = 2

 SCF Done:  E(UM062X) =  -582.126819187     A.U. after   11 cycles
 SCF Done:  E(UM062X) =  -582.127656873     A.U. after    9 cycles
 SCF Done:  E(UM062X) =  -582.128062867     A.U. after   10 cycles
 SCF Done:  E(UM062X) =  -582.128065513     A.U. after    9 cycles
 Optimization completed.
    -- Stationary point found.

                          Input orientation:
 ---------------------------------------------------------------------
 Center     Atomic      Atomic             Coordinates (Angstroms)
 Number     Number       Type             X           Y           Z
 ---------------------------------------------------------------------
      1         14           0       -2.826292    0.000000    0.000000
      2         14           0        2.826292    0.000000    0.000000
      3          1           0        2.911616   -1.461368   -0.000029
      4          1           0       -2.910849   -0.730539    1.265711
      5          1           0        2.911403    0.730729   -1.265564
      6          1           0        2.910618    0.730621    1.265679
      7          1           0       -2.911644    1.461367   -0.000159
      8          1           0       -2.911144   -0.730815   -1.265532
 ---------------------------------------------------------------------

 Alpha  occ. eigenvalues --  -67.21294 -67.21294  -5.76165  -5.76165  -4.07866
 Alpha  occ. eigenvalues --   -4.07866  -4.07043  -4.07043  -4.07043  -4.07043
 Alpha  occ. eigenvalues --   -0.79955  -0.79816  -0.60458  -0.60457  -0.60443
 Alpha  occ. eigenvalues --   -0.60442  -0.37345
 Alpha virt. eigenvalues --   -0.30641  -0.11173  -0.11165  -0.09500  -0.08547
 Alpha virt. eigenvalues --   -0.08546  -0.07493  -0.07492  -0.07372  -0.06650
 Alpha virt. eigenvalues --   -0.06649  -0.05819  -0.05819  -0.04907  -0.00214

  Beta  occ. eigenvalues --  -67.21004 -67.21004  -5.76078  -5.76078  -4.07184
  Beta  occ. eigenvalues --   -4.07184  -4.06943  -4.06943  -4.06943  -4.06943
  Beta  occ. eigenvalues --   -0.78209  -0.78175  -0.60389  -0.60388  -0.60375
  Beta  occ. eigenvalues --   -0.60375
  Beta virt. eigenvalues --   -0.28040  -0.23660  -0.15120  -0.10299  -0.10213
  Beta virt. eigenvalues --   -0.10212  -0.09505  -0.08116  -0.08115  -0.07450
  Beta virt. eigenvalues --   -0.06022  -0.06021  -0.05239  -0.05239  -0.05027

 Mulliken charges and spin densities:
               1          2
     1  Si   0.527051   0.569944
     2  Si   0.527051   0.569944
     3  H   -0.009011  -0.023312
     4  H   -0.009021  -0.023315
     5  H   -0.009015  -0.023317
     6  H   -0.009024  -0.023315
     7  H   -0.009011  -0.023312
     8  H   -0.009019  -0.023317
 Sum of Mulliken charges =   1.00000   1.00000

 Dipole moment (field-independent basis, Debye):
    X=             -0.0000    Y=             -0.0000    Z=              0.0000  Tot=              0.0000
 Quadrupole moment (field-independent basis, Debye-Ang):
   XX=             16.7646   YY=            -26.2401   ZZ=            -26.2399
   XY=              0.0007   XZ=              0.0000   YZ=             -0.0000

 Normal termination of Gaussian 16 at Mon Apr 21 20:17:47 2025.
