 Gaussian 16, Revision A.03,
 Gaussian 16:  ES64L-G16RevA.03 25-Dec-2016

 --------------------------------------------
 #p opt UM062X/6-311+G** nosymm int=superfine
 --------------------------------------------

 -------------------
 Title Card Required
 -------------------
 Symbolic Z-matrix:
 Charge =  1 Multiplicity = 2

 SCF Done:  E(UM062X) =  -80.1636211013     A.U. after   18 cycles
 SCF Done:  E(UM062X) =  -80.1644127457     A.U. after   10 cycles
 SCF Done:  E(UM062X) =  -80.1644151895     A.U. after    8 cycles
 Optimization completed.
    -- Stationary point found.

                          Input orientation:
 ---------------------------------------------------------------------
 Center     Atomic      Atomic             Coordinates (Angstroms)
 Number     Number       Type             X           Y           Z
 ---------------------------------------------------------------------
      1          5           0       -1.502734    0.000000    0.000000
      2          7           0        1.502734    0.000000    0.000000
      3          1           0       -2.706336   -0.000364    0.000000
      4          1           0        2.538747   -0.000172   -0.000000
 ---------------------------------------------------------------------

 Alpha  occ. eigenvalues --  -14.98748  -7.52337  -1.11522  -0.85161  -0.65831
 Alpha  occ. eigenvalues --   -0.58111  -0.58111
 Alpha virt. eigenvalues --   -0.40643  -0.33013  -0.33013  -0.14595  -0.10888
 Alpha virt. eigenvalues --   -0.09694  -0.09694  -0.06802  -0.01041   0.00091
 Alpha virt. eigenvalues --    0.00091   0.05502   0.08251   0.14056   0.14056

  Beta  occ. eigenvalues --  -14.96352  -7.53594  -0.98826  -0.88706  -0.67774
  Beta  occ. eigenvalues --   -0.59375
  Beta virt. eigenvalues --   -0.35149  -0.35149  -0.22625  -0.22625  -0.14248
  Beta virt. eigenvalues --   -0.10808  -0.09339  -0.09339  -0.07190  -0.01405
  Beta virt. eigenvalues --    0.01776   0.01776   0.05025   0.09369   0.16335

 Mulliken charges and spin densities:
               1          2
     1  B    0.722158  -0.826516
     2  N   -0.239023   2.043378
     3  H    0.218455  -0.141866
     4  H    0.298410  -0.074996
 Sum of Mulliken charges =   1.00000   1.00000

 Dipole moment (field-independent basis, Debye):
    X=             -5.2127    Y=             -0.0006    Z=              0.0000  Tot=              5.2127
 Quadrupole moment (field-independent basis, Debye-Ang):
   XX=             10.7125   YY=            -10.2729   ZZ=            -10.2729
   XY=             -0.0002   XZ=             -0.0000   YZ=              0.0000

 Normal termination of Gaussian 16 at Mon Apr 21 17:58:25 2025.
