 Gaussian 16, Revision A.03,
 Gaussian 16:  ES64L-G16RevA.03 25-Dec-2016

 ---------------------------------------------------
 #p UM062X/6-311+G** force int=superfine pop=saveNBO
 ---------------------------------------------------

 -------------------
 Title Card Required
 -------------------
 Symbolic Z-matrix:
 Charge =  0 Multiplicity = 1

                         Standard orientation:
 ---------------------------------------------------------------------
 Center     Atomic      Atomic             Coordinates (Angstroms)
 Number     Number       Type             X           Y           Z
 ---------------------------------------------------------------------
      1          8           0        0.000000    0.000000    1.043562
      2          8           0        0.000000    0.000000   -1.043562
 ---------------------------------------------------------------------

 SCF Done:  E(UM062X) =  -149.959623389     A.U. after    9 cycles

 Unable to determine electronic state:  partially filled degenerate orbitals.
 Alpha  occ. eigenvalues --  -19.84048 -19.84039  -1.13937  -1.07906  -0.50602
 Alpha  occ. eigenvalues --   -0.48973  -0.47289  -0.44093
 Alpha virt. eigenvalues --   -0.27559  -0.21341   0.10332   0.12892   0.15176
 Alpha virt. eigenvalues --    0.15331   0.20526   0.20852   0.21526   0.32225
 Alpha virt. eigenvalues --    0.95678   0.96628   1.00279   1.04279   1.06147

  Beta  occ. eigenvalues --  -19.84048 -19.84039  -1.13937  -1.07906  -0.50602
  Beta  occ. eigenvalues --   -0.48973  -0.47289  -0.44093
  Beta virt. eigenvalues --   -0.27559  -0.21341   0.10332   0.12892   0.15176
  Beta virt. eigenvalues --    0.15331   0.20526   0.20852   0.21526   0.32225
  Beta virt. eigenvalues --    0.95678   0.96628   1.00279   1.04279   1.06147

 Mulliken charges and spin densities:
               1          2
     1  O   -0.000000   0.000000
     2  O   -0.000000   0.000000
 Sum of Mulliken charges =  -0.00000   0.00000

 Dipole moment (field-independent basis, Debye):
    X=             -0.0000    Y=             -0.0000    Z=             -0.0000  Tot=              0.0000
 Quadrupole moment (field-independent basis, Debye-Ang):
   XX=            -10.1359   YY=            -11.8737   ZZ=             -9.3718
   XY=              0.0000   XZ=             -0.0000   YZ=              0.0000

 Summary of Natural Population Analysis:

                                       Natural Population
                Natural  -----------------------------------------------
    Atom  No    Charge         Core      Valence    Rydberg      Total
 -----------------------------------------------------------------------
      O    1   -0.00000      1.00000     2.99911    0.00089     4.00000
      O    2   -0.00000      1.00000     2.99911    0.00089     4.00000
 =======================================================================
   * Total *   -0.00000      2.00000     5.99822    0.00178     8.00000

 Normal termination of Gaussian 16 at Mon Apr 21 19:48:05 2025.
