 Gaussian 16, Revision A.03,
 Gaussian 16:  ES64L-G16RevA.03 25-Dec-2016

 --------------------------------------------
 #p opt UM062X/6-311+G** nosymm int=superfine
 --------------------------------------------

 -------------------
 Title Card Required
 -------------------
 Symbolic Z-matrix:
 Charge =  0 Multiplicity = 1

 SCF Done:  E(UM062X) =  -115.436810513     A.U. after   58 cycles
 SCF Done:  E(UM062X) =  -115.453068141     A.U. after   12 cycles
 SCF Done:  E(UM062X) =  -115.463183775     A.U. after   14 cycles
 SCF Done:  E(UM062X) =  -115.463299851     A.U. after   12 cycles
 SCF Done:  E(UM062X) =  -115.463343406     A.U. after   14 cycles
 SCF Done:  E(UM062X) =  -115.463482995     A.U. after   16 cycles
 SCF Done:  E(UM062X) =  -115.463511907     A.U. after   15 cycles
 SCF Done:  E(UM062X) =  -115.463515021     A.U. after    9 cycles
 Optimization completed.
    -- Stationary point found.

                          Input orientation:
 ---------------------------------------------------------------------
 Center     Atomic      Atomic             Coordinates (Angstroms)
 Number     Number       Type             X           Y           Z
 ---------------------------------------------------------------------
      1          6           0       -1.957203    0.000000    0.000000
      2          8           0        1.957203    0.000000    0.000000
      3          1           0        2.028730   -0.963163    0.000644
      4          1           0       -2.021593   -0.534813    0.937803
      5          1           0       -1.851929    1.076441   -0.000635
      6          1           0       -2.021493   -0.535923   -0.937176
 ---------------------------------------------------------------------

 Alpha  occ. eigenvalues --  -19.58260 -10.67240  -1.00726  -0.85191  -0.57273
 Alpha  occ. eigenvalues --   -0.57106  -0.45259  -0.32221  -0.27132
 Alpha virt. eigenvalues --   -0.17941   0.00272   0.03553   0.03774   0.06904
 Alpha virt. eigenvalues --    0.13070   0.14470   0.14621   0.18630   0.22647
 Alpha virt. eigenvalues --    0.23073   0.24995   0.28459   0.38838   0.39027

  Beta  occ. eigenvalues --  -19.58260 -10.67240  -1.00726  -0.85191  -0.57273
  Beta  occ. eigenvalues --   -0.57106  -0.45259  -0.32221  -0.27132
  Beta virt. eigenvalues --   -0.17941   0.00272   0.03553   0.03774   0.06904
  Beta virt. eigenvalues --    0.13070   0.14470   0.14621   0.18630   0.22647
  Beta virt. eigenvalues --    0.23073   0.24995   0.28459   0.38838   0.39027

 Mulliken charges and spin densities:
               1          2
     1  C   -0.291367   0.000001
     2  O   -0.561636  -0.000001
     3  H    0.213426  -0.000000
     4  H    0.209733  -0.000000
     5  H    0.220109  -0.000000
     6  H    0.209736  -0.000000
 Sum of Mulliken charges =  -0.00000  -0.00000

 Dipole moment (field-independent basis, Debye):
    X=             -6.5907    Y=             -1.5898    Z=              0.0010  Tot=              6.7798
 Quadrupole moment (field-independent basis, Debye-Ang):
   XX=            -13.1133   YY=            -11.5086   ZZ=            -13.9215
   XY=             -3.3059   XZ=              0.0021   YZ=             -0.0016

 Normal termination of Gaussian 16 at Mon Apr 21 18:46:15 2025.
