 Gaussian 16, Revision A.03,
 Gaussian 16:  ES64L-G16RevA.03 25-Dec-2016

 --------------------------------------------
 #p opt UM062X/6-311+G** nosymm int=superfine
 --------------------------------------------

 -------------------
 Title Card Required
 -------------------
 Symbolic Z-matrix:
 Charge =  0 Multiplicity = 1

 SCF Done:  E(UM062X) =  -110.261355033     A.U. after   13 cycles
 SCF Done:  E(UM062X) =  -110.271023294     A.U. after   12 cycles
 SCF Done:  E(UM062X) =  -110.275492193     A.U. after   13 cycles
 SCF Done:  E(UM062X) =  -110.275501044     A.U. after   10 cycles
 Optimization completed.
    -- Stationary point found.

                          Input orientation:
 ---------------------------------------------------------------------
 Center     Atomic      Atomic             Coordinates (Angstroms)
 Number     Number       Type             X           Y           Z
 ---------------------------------------------------------------------
      1          7           0       -1.290428    0.000000    0.000000
      2          7           0        1.290428    0.000000    0.000000
      3          1           0       -1.154646   -1.028395    0.000000
      4          1           0        1.154646    1.028395    0.000000
 ---------------------------------------------------------------------

 Alpha  occ. eigenvalues --  -14.88820 -14.88815  -0.93795  -0.90927  -0.49587
 Alpha  occ. eigenvalues --   -0.48023  -0.35309  -0.31944
 Alpha virt. eigenvalues --   -0.19162  -0.15190   0.05659   0.07596   0.10643
 Alpha virt. eigenvalues --    0.12108   0.13340   0.14804   0.15937   0.19399
 Alpha virt. eigenvalues --    0.19549   0.24168   0.52693   0.55801   0.72947

  Beta  occ. eigenvalues --  -14.88820 -14.88815  -0.93795  -0.90927  -0.49587
  Beta  occ. eigenvalues --   -0.48023  -0.35309  -0.31944
  Beta virt. eigenvalues --   -0.19162  -0.15190   0.05659   0.07596   0.10643
  Beta virt. eigenvalues --    0.12108   0.13340   0.14804   0.15937   0.19399
  Beta virt. eigenvalues --    0.19549   0.24168   0.52693   0.55801   0.72947

 Mulliken charges and spin densities:
               1          2
     1  N   -0.245260  -0.000000
     2  N   -0.245260   0.000000
     3  H    0.245260   0.000000
     4  H    0.245260  -0.000000
 Sum of Mulliken charges =  -0.00000  -0.00000

 Dipole moment (field-independent basis, Debye):
    X=              0.0000    Y=             -0.0000    Z=              0.0000  Tot=              0.0000
 Quadrupole moment (field-independent basis, Debye-Ang):
   XX=            -13.7473   YY=            -10.9914   ZZ=            -14.1453
   XY=              4.5028   XZ=              0.0000   YZ=              0.0000

 Normal termination of Gaussian 16 at Thu May 15 15:37:15 2025.
