 Gaussian 16, Revision A.03,
 Gaussian 16:  ES64L-G16RevA.03 25-Dec-2016

 ---------------------------------------------------------
 #p opt UM062X/6-311+G** nosymm int=superfine SCF=NoVarAcc
 ---------------------------------------------------------

 -------------------
 Title Card Required
 -------------------
 Symbolic Z-matrix:
 Charge =  1 Multiplicity = 2

 SCF Done:  E(UM062X) =  -77.9887759766     A.U. after    9 cycles
 SCF Done:  E(UM062X) =  -77.9888124200     A.U. after    6 cycles
 SCF Done:  E(UM062X) =  -77.9888262001     A.U. after    8 cycles
 Optimization completed.
    -- Stationary point found.

                          Input orientation:
 ---------------------------------------------------------------------
 Center     Atomic      Atomic             Coordinates (Angstroms)
 Number     Number       Type             X           Y           Z
 ---------------------------------------------------------------------
      1          6           0       -1.181027    0.000000    0.000000
      2          6           0        1.181027    0.000000    0.000000
      3          1           0       -1.604010   -0.999453   -0.000000
      4          1           0       -1.604010    0.999453    0.000000
      5          1           0        1.604011    0.999453    0.000000
      6          1           0        1.604010   -0.999453    0.000000
 ---------------------------------------------------------------------

 Alpha  occ. eigenvalues --  -10.92385 -10.92376  -1.04378  -1.00679  -0.79992
 Alpha  occ. eigenvalues --   -0.78400  -0.61997  -0.53491
 Alpha virt. eigenvalues --   -0.38197  -0.30832  -0.13753  -0.10863  -0.10433
 Alpha virt. eigenvalues --   -0.08019  -0.07553  -0.06896  -0.04713  -0.03752
 Alpha virt. eigenvalues --   -0.03664   0.00473   0.01799   0.09215   0.18130

  Beta  occ. eigenvalues --  -10.92136 -10.92130  -1.01490  -0.98325  -0.79553
  Beta  occ. eigenvalues --   -0.78038  -0.60284
  Beta virt. eigenvalues --   -0.33579  -0.28856  -0.28627  -0.14904  -0.11109
  Beta virt. eigenvalues --   -0.10614  -0.07423  -0.07374  -0.07107  -0.03906
  Beta virt. eigenvalues --   -0.03779  -0.03233   0.00733   0.00958   0.10137

 Mulliken charges and spin densities:
               1          2
     1  C   -0.067771   0.541877
     2  C   -0.067771   0.541877
     3  H    0.283885  -0.020938
     4  H    0.283885  -0.020938
     5  H    0.283885  -0.020938
     6  H    0.283885  -0.020938
 Sum of Mulliken charges =   1.00000   1.00000

 Dipole moment (field-independent basis, Debye):
    X=              0.0000    Y=              0.0000    Z=              0.0000  Tot=              0.0000
 Quadrupole moment (field-independent basis, Debye-Ang):
   XX=              0.4313   YY=             -7.9613   ZZ=            -12.7959
   XY=              0.0000   XZ=              0.0000   YZ=              0.0000

 Normal termination of Gaussian 16 at Tue Dec  3 13:21:50 2024.
