 Gaussian 16, Revision A.03,
 Gaussian 16:  ES64L-G16RevA.03 25-Dec-2016

 --------------------------------------------
 #p opt UM062X/6-311+G** nosymm int=superfine
 --------------------------------------------

 -------------------
 Title Card Required
 -------------------
 Symbolic Z-matrix:
 Charge = -1 Multiplicity = 2

 SCF Done:  E(UM062X) =  -50.5604985529     A.U. after   18 cycles
 SCF Done:  E(UM062X) =  -50.5642168792     A.U. after   15 cycles
 SCF Done:  E(UM062X) =  -50.5644343890     A.U. after   15 cycles
 Optimization completed.
    -- Stationary point found.

                          Input orientation:
 ---------------------------------------------------------------------
 Center     Atomic      Atomic             Coordinates (Angstroms)
 Number     Number       Type             X           Y           Z
 ---------------------------------------------------------------------
      1          5           0       -2.141404    0.000000    0.000000
      2          5           0        2.141404    0.000000    0.000000
      3          1           0       -3.402341   -0.000956   -0.000000
      4          1           0        3.402341    0.000956    0.000000
 ---------------------------------------------------------------------

 Alpha  occ. eigenvalues --   -6.91650  -6.91649  -0.35299  -0.35196  -0.09741
 Alpha  occ. eigenvalues --   -0.07709   0.02649
 Alpha virt. eigenvalues --    0.09575   0.12196   0.13137   0.15331   0.16010
 Alpha virt. eigenvalues --    0.21282   0.21568   0.21713   0.22430   0.22989
 Alpha virt. eigenvalues --    0.25305   0.31920   0.36739   0.49872   0.55731

  Beta  occ. eigenvalues --   -6.91557  -6.91557  -0.34220  -0.34182  -0.08643
  Beta  occ. eigenvalues --   -0.06669
  Beta virt. eigenvalues --    0.10592   0.11361   0.11996   0.12359   0.13382
  Beta virt. eigenvalues --    0.13590   0.19182   0.20041   0.20267   0.21129
  Beta virt. eigenvalues --    0.21476   0.21671   0.31744   0.36805   0.49495

 Mulliken charges and spin densities:
               1          2
     1  B   -0.410686   0.512815
     2  B   -0.410686   0.512815
     3  H   -0.089314  -0.012815
     4  H   -0.089314  -0.012815
 Sum of Mulliken charges =  -1.00000   1.00000

 Dipole moment (field-independent basis, Debye):
    X=             -0.0000    Y=             -0.0000    Z=              0.0000  Tot=              0.0000
 Quadrupole moment (field-independent basis, Debye-Ang):
   XX=            -40.6498   YY=            -18.9996   ZZ=            -26.2333
   XY=             -0.0009   XZ=             -0.0000   YZ=              0.0000

 Normal termination of Gaussian 16 at Mon Apr 21 17:29:49 2025.
