 Gaussian 16, Revision A.03,
 Gaussian 16:  ES64L-G16RevA.03 25-Dec-2016

 --------------------------------------------
 #p opt UM062X/6-311+G** nosymm int=superfine
 --------------------------------------------

 -------------------
 Title Card Required
 -------------------
 Symbolic Z-matrix:
 Charge =  0 Multiplicity = 1

 SCF Done:  E(UM062X) =  -581.195418235     A.U. after   12 cycles
 SCF Done:  E(UM062X) =  -581.195422789     A.U. after   11 cycles
 SCF Done:  E(UM062X) =  -581.195457218     A.U. after   11 cycles
 SCF Done:  E(UM062X) =  -581.195463014     A.U. after    9 cycles
 SCF Done:  E(UM062X) =  -581.195466988     A.U. after    9 cycles
 SCF Done:  E(UM062X) =  -581.195468456     A.U. after    8 cycles
 SCF Done:  E(UM062X) =  -581.195470597     A.U. after    9 cycles
 SCF Done:  E(UM062X) =  -581.195471817     A.U. after    8 cycles
 SCF Done:  E(UM062X) =  -581.195472605     A.U. after    8 cycles
 SCF Done:  E(UM062X) =  -581.195472528     A.U. after    8 cycles
 SCF Done:  E(UM062X) =  -581.195472900     A.U. after    8 cycles
 SCF Done:  E(UM062X) =  -581.195473152     A.U. after    8 cycles
 Optimization completed.
    -- Stationary point found.

                          Input orientation:
 ---------------------------------------------------------------------
 Center     Atomic      Atomic             Coordinates (Angstroms)
 Number     Number       Type             X           Y           Z
 ---------------------------------------------------------------------
      1         14           0       -1.761042    0.000000    0.000000
      2         14           0        1.761042    0.000000    0.000000
      3          1           0       -1.386281   -1.106218   -0.977274
      4          1           0        0.192576    0.121073    0.325397
      5          1           0       -1.504275    1.096430   -1.021586
      6          1           0        1.663194   -1.500053    0.171867
 ---------------------------------------------------------------------

 Alpha  occ. eigenvalues --  -67.06442 -66.99207  -5.60952  -5.53902  -3.92109
 Alpha  occ. eigenvalues --   -3.91673  -3.91467  -3.85094  -3.84663  -3.84546
 Alpha  occ. eigenvalues --   -0.61971  -0.55361  -0.41107  -0.36703  -0.32546
 Alpha  occ. eigenvalues --   -0.26358
 Alpha virt. eigenvalues --   -0.10664  -0.05359   0.01645   0.02058   0.03600
 Alpha virt. eigenvalues --    0.04033   0.04436   0.05259   0.06337   0.08075
 Alpha virt. eigenvalues --    0.08734   0.09387   0.11645   0.19374   0.27176

  Beta  occ. eigenvalues --  -67.06442 -66.99207  -5.60952  -5.53902  -3.92109
  Beta  occ. eigenvalues --   -3.91673  -3.91467  -3.85094  -3.84663  -3.84546
  Beta  occ. eigenvalues --   -0.61971  -0.55361  -0.41107  -0.36703  -0.32546
  Beta  occ. eigenvalues --   -0.26358
  Beta virt. eigenvalues --   -0.10664  -0.05359   0.01645   0.02058   0.03600
  Beta virt. eigenvalues --    0.04033   0.04436   0.05259   0.06337   0.08075
  Beta virt. eigenvalues --    0.08734   0.09387   0.11645   0.19374   0.27176

 Mulliken charges and spin densities:
               1          2
     1  Si   0.210980   0.000000
     2  Si   0.493294  -0.000000
     3  H   -0.146848  -0.000000
     4  H   -0.278524   0.000000
     5  H   -0.144833  -0.000000
     6  H   -0.134070  -0.000000
 Sum of Mulliken charges =  -0.00000  -0.00000

 Dipole moment (field-independent basis, Debye):
    X=              2.5916    Y=             -0.2873    Z=             -0.0431  Tot=              2.6078
 Quadrupole moment (field-independent basis, Debye-Ang):
   XX=            -29.9503   YY=            -33.0702   ZZ=            -30.5172
   XY=             -1.1790   XZ=              2.5939   YZ=              0.6285

 Normal termination of Gaussian 16 at Tue Apr 22 02:00:05 2025.
