 Gaussian 16, Revision A.03,
 Gaussian 16:  ES64L-G16RevA.03 25-Dec-2016

 --------------------------------------------
 #p opt UM062X/6-311+G** nosymm int=superfine
 --------------------------------------------

 -------------------
 Title Card Required
 -------------------
 Symbolic Z-matrix:
 Charge =  0 Multiplicity = 1

 SCF Done:  E(UM062X) =  -684.898372158     A.U. after   11 cycles
 SCF Done:  E(UM062X) =  -684.898782860     A.U. after   10 cycles
 SCF Done:  E(UM062X) =  -684.898900297     A.U. after   11 cycles
 SCF Done:  E(UM062X) =  -684.899212677     A.U. after   12 cycles
 SCF Done:  E(UM062X) =  -684.899463619     A.U. after   13 cycles
 SCF Done:  E(UM062X) =  -684.899522498     A.U. after   12 cycles
 SCF Done:  E(UM062X) =  -684.899535828     A.U. after   11 cycles
 SCF Done:  E(UM062X) =  -684.899540770     A.U. after   11 cycles
 SCF Done:  E(UM062X) =  -684.899556490     A.U. after   12 cycles
 SCF Done:  E(UM062X) =  -684.899577622     A.U. after   11 cycles
 SCF Done:  E(UM062X) =  -684.899720263     A.U. after   13 cycles
 SCF Done:  E(UM062X) =  -684.899726607     A.U. after   11 cycles
 SCF Done:  E(UM062X) =  -684.899727616     A.U. after   12 cycles
 SCF Done:  E(UM062X) =  -684.899721601     A.U. after   12 cycles
 SCF Done:  E(UM062X) =  -684.899732481     A.U. after   12 cycles
 SCF Done:  E(UM062X) =  -684.896218401     A.U. after   15 cycles
 SCF Done:  E(UM062X) =  -684.899732960     A.U. after    9 cycles
 SCF Done:  E(UM062X) =  -684.899733023     A.U. after   10 cycles
 SCF Done:  E(UM062X) =  -684.899733121     A.U. after    8 cycles
 SCF Done:  E(UM062X) =  -684.899733132     A.U. after    9 cycles
 Optimization completed.
    -- Stationary point found.

                          Input orientation:
 ---------------------------------------------------------------------
 Center     Atomic      Atomic             Coordinates (Angstroms)
 Number     Number       Type             X           Y           Z
 ---------------------------------------------------------------------
      1         15           0       -2.617217    0.000000    0.000000
      2         15           0        2.617217    0.000000    0.000000
      3          1           0        2.498859   -1.053667    0.942922
      4          1           0       -2.503977    1.095060    0.895315
      5          1           0        2.508058   -0.902138   -1.089979
      6          1           0       -2.507357    0.852840   -1.128791
 ---------------------------------------------------------------------

 Alpha  occ. eigenvalues --  -78.04845 -78.04845  -6.87283  -6.87283  -4.98823
 Alpha  occ. eigenvalues --   -4.98823  -4.98710  -4.98709  -4.98528  -4.98527
 Alpha  occ. eigenvalues --   -0.71148  -0.71002  -0.45131  -0.45097  -0.36253
 Alpha  occ. eigenvalues --   -0.36228  -0.23144
 Alpha virt. eigenvalues --   -0.16399   0.01444   0.02784   0.03189   0.03997
 Alpha virt. eigenvalues --    0.04812   0.05746   0.05941   0.05976   0.06064
 Alpha virt. eigenvalues --    0.07797   0.12138   0.17838   0.29402   0.29991

  Beta  occ. eigenvalues --  -78.04845 -78.04845  -6.87283  -6.87283  -4.98823
  Beta  occ. eigenvalues --   -4.98823  -4.98710  -4.98709  -4.98528  -4.98527
  Beta  occ. eigenvalues --   -0.71148  -0.71002  -0.45131  -0.45097  -0.36253
  Beta  occ. eigenvalues --   -0.36228  -0.23144
  Beta virt. eigenvalues --   -0.16399   0.01444   0.02784   0.03189   0.03997
  Beta virt. eigenvalues --    0.04812   0.05746   0.05941   0.05976   0.06064
  Beta virt. eigenvalues --    0.07797   0.12138   0.17838   0.29402   0.29991

 Mulliken charges and spin densities:
               1          2
     1  P    0.016014  -0.000000
     2  P    0.016173   0.000000
     3  H   -0.007681  -0.000000
     4  H   -0.007695   0.000000
     5  H   -0.008410  -0.000000
     6  H   -0.008401   0.000000
 Sum of Mulliken charges =  -0.00000  -0.00000

 Dipole moment (field-independent basis, Debye):
    X=             -0.0013    Y=             -0.0041    Z=             -0.1738  Tot=              0.1739
 Quadrupole moment (field-independent basis, Debye-Ang):
   XX=            -29.6455   YY=            -31.2259   ZZ=            -28.5294
   XY=             -5.0054   XZ=              0.1080   YZ=              0.0600

 Normal termination of Gaussian 16 at Mon Apr 21 21:06:22 2025.
