 Gaussian 16, Revision A.03,
 Gaussian 16:  ES64L-G16RevA.03 25-Dec-2016

 ---------------------------------------
 #p UM062X/6-311+G** force int=superfine
 ---------------------------------------

 -------------------
 Title Card Required
 -------------------
 Symbolic Z-matrix:
 Charge =  1 Multiplicity = 2

                         Standard orientation:
 ---------------------------------------------------------------------
 Center     Atomic      Atomic             Coordinates (Angstroms)
 Number     Number       Type             X           Y           Z
 ---------------------------------------------------------------------
      1          6           0        0.000000    0.000000    0.397659
      2          6           0        0.000000    0.000000   -0.397659
      3          1           0        0.000000    0.000000    1.463061
      4          1           0        0.000000    0.000000   -1.463059
 ---------------------------------------------------------------------

 SCF Done:  E(UM062X) =  -76.0094857118     A.U. after   11 cycles

 Unable to determine electronic state:  partially filled degenerate orbitals.
 Alpha  occ. eigenvalues --  -10.95919 -10.87780  -1.33502  -0.93466  -0.92898
 Alpha  occ. eigenvalues --   -0.92030  -0.88608
 Alpha virt. eigenvalues --   -0.15051  -0.14057  -0.13246  -0.12864  -0.12366
 Alpha virt. eigenvalues --   -0.11984  -0.11725  -0.01075  -0.00335   0.00028
 Alpha virt. eigenvalues --    0.02757   0.03559   0.17180   0.22356   0.23356

  Beta  occ. eigenvalues --  -10.95303 -10.87362  -1.26325  -0.91950  -0.90920
  Beta  occ. eigenvalues --   -0.85773
  Beta virt. eigenvalues --   -0.58749  -0.15446  -0.12959  -0.12400  -0.12315
  Beta virt. eigenvalues --   -0.12036  -0.12010  -0.11624  -0.00100   0.00670
  Beta virt. eigenvalues --    0.01754   0.03321   0.04119   0.17453   0.21303

 Mulliken charges and spin densities:
               1          2
     1  C    0.267614   0.524947
     2  C    0.267611   0.524946
     3  H    0.232388  -0.024946
     4  H    0.232387  -0.024946
 Sum of Mulliken charges =   1.00000   1.00000

 Dipole moment (field-independent basis, Debye):
    X=              0.0000    Y=              0.0000    Z=              0.0000  Tot=              0.0000
 Quadrupole moment (field-independent basis, Debye-Ang):
   XX=             -8.1986   YY=             -9.5072   ZZ=             -3.0374
   XY=              0.0000   XZ=              0.0000   YZ=              0.0000

 Normal termination of Gaussian 16 at Tue Nov 19 13:24:00 2024.
