 Gaussian 16, Revision A.03,
 Gaussian 16:  ES64L-G16RevA.03 25-Dec-2016

 --------------------------------------------
 #p opt UM062X/6-311+G** nosymm int=superfine
 --------------------------------------------

 -------------------
 Title Card Required
 -------------------
 Symbolic Z-matrix:
 Charge =  0 Multiplicity = 1

 SCF Done:  E(UM062X) =  -77.1951148367     A.U. after    9 cycles
 SCF Done:  E(UM062X) =  -77.2275638062     A.U. after    9 cycles
 SCF Done:  E(UM062X) =  -77.2386596482     A.U. after    9 cycles
 SCF Done:  E(UM062X) =  -77.2386832612     A.U. after    8 cycles
 Optimization completed.
    -- Stationary point found.

                          Input orientation:
 ---------------------------------------------------------------------
 Center     Atomic      Atomic             Coordinates (Angstroms)
 Number     Number       Type             X           Y           Z
 ---------------------------------------------------------------------
      1          6           0       -0.718219    0.000000    0.000000
      2          6           0        0.718219    0.000000    0.000000
      3          1           0       -1.787864   -0.000000   -0.000000
      4          1           0        1.787859   -0.000000   -0.000000
 ---------------------------------------------------------------------

 Alpha  occ. eigenvalues --  -10.61095 -10.61025  -0.80824  -0.67496  -0.55679
 Alpha  occ. eigenvalues --   -0.32571  -0.32571
 Alpha virt. eigenvalues --    0.00133   0.00133   0.02129   0.02437   0.08053
 Alpha virt. eigenvalues --    0.08053   0.09354   0.12135   0.12135   0.12249
 Alpha virt. eigenvalues --    0.18407   0.23551   0.33205   0.45844   0.58502

  Beta  occ. eigenvalues --  -10.61095 -10.61025  -0.80824  -0.67496  -0.55679
  Beta  occ. eigenvalues --   -0.32571  -0.32571
  Beta virt. eigenvalues --    0.00133   0.00133   0.02129   0.02437   0.08053
  Beta virt. eigenvalues --    0.08053   0.09354   0.12135   0.12135   0.12249
  Beta virt. eigenvalues --    0.18407   0.23551   0.33205   0.45844   0.58502

 Mulliken charges and spin densities:
               1          2
     1  C   -0.215337  -0.000000
     2  C   -0.215337   0.000000
     3  H    0.215337  -0.000000
     4  H    0.215336   0.000000
 Sum of Mulliken charges =  -0.00000  -0.00000

 Dipole moment (field-independent basis, Debye):
    X=             -0.0000    Y=             -0.0000    Z=             -0.0000  Tot=              0.0000
 Quadrupole moment (field-independent basis, Debye-Ang):
   XX=             -6.0192   YY=            -14.8582   ZZ=            -14.8582
   XY=             -0.0000   XZ=             -0.0000   YZ=              0.0000

 Normal termination of Gaussian 16 at Tue Dec  3 20:07:47 2024.
