 Gaussian 16, Revision A.03,
 Gaussian 16:  ES64L-G16RevA.03 25-Dec-2016

 --------------------------------------------
 #p opt UM062X/6-311+G** nosymm int=superfine
 --------------------------------------------

 -------------------
 Title Card Required
 -------------------
 Symbolic Z-matrix:
 Charge =  1 Multiplicity = 2

 SCF Done:  E(UM062X) =  -579.716783118     A.U. after   19 cycles
 SCF Done:  E(UM062X) =  -579.717567951     A.U. after   17 cycles
 SCF Done:  E(UM062X) =  -579.717756041     A.U. after   16 cycles
 SCF Done:  E(UM062X) =  -579.718216248     A.U. after   18 cycles
 SCF Done:  E(UM062X) =  -579.718642459     A.U. after   20 cycles
 SCF Done:  E(UM062X) =  -579.721168321     A.U. after   18 cycles
 SCF Done:  E(UM062X) =  -579.727011795     A.U. after   19 cycles
 SCF Done:  E(UM062X) =  -579.711023498     A.U. after   21 cycles
 SCF Done:  E(UM062X) =  -579.724076107     A.U. after   19 cycles
 SCF Done:  E(UM062X) =  -579.727126179     A.U. after   15 cycles
 SCF Done:  E(UM062X) =  -579.725523012     A.U. after   18 cycles
 SCF Done:  E(UM062X) =  -579.727174238     A.U. after   15 cycles
 SCF Done:  E(UM062X) =  -579.727215346     A.U. after   17 cycles
 SCF Done:  E(UM062X) =  -579.727228429     A.U. after   17 cycles
 SCF Done:  E(UM062X) =  -579.727231427     A.U. after   14 cycles
 SCF Done:  E(UM062X) =  -579.727232888     A.U. after   16 cycles
 SCF Done:  E(UM062X) =  -579.727233922     A.U. after   14 cycles
 SCF Done:  E(UM062X) =  -579.727233991     A.U. after   13 cycles
 SCF Done:  E(UM062X) =  -579.727234101     A.U. after   14 cycles
 SCF Done:  E(UM062X) =  -579.727234118     A.U. after   13 cycles
 Optimization completed.
    -- Stationary point found.

                          Input orientation:
 ---------------------------------------------------------------------
 Center     Atomic      Atomic             Coordinates (Angstroms)
 Number     Number       Type             X           Y           Z
 ---------------------------------------------------------------------
      1         14           0       -1.327975    0.000000    0.000000
      2         14           0        1.327975    0.000000    0.000000
      3          1           0       -1.421302   -1.487849    0.215132
      4          1           0        1.710512    0.175693   -1.439539
 ---------------------------------------------------------------------

 Alpha  occ. eigenvalues --  -67.28147 -67.27585  -5.82409  -5.81850  -4.13629
 Alpha  occ. eigenvalues --   -4.13497  -4.13001  -4.12880  -4.12875  -4.12304
 Alpha  occ. eigenvalues --   -0.81732  -0.75192  -0.57404  -0.54027  -0.48079
 Alpha virt. eigenvalues --   -0.29969  -0.28792  -0.19486  -0.13620  -0.11281
 Alpha virt. eigenvalues --   -0.09254  -0.09168  -0.08852  -0.08388  -0.06198
 Alpha virt. eigenvalues --   -0.05923  -0.05710  -0.02836   0.10942   0.12249

  Beta  occ. eigenvalues --  -67.27786 -67.27312  -5.82252  -5.81747  -4.13416
  Beta  occ. eigenvalues --   -4.12855  -4.12823  -4.12551  -4.12299  -4.12088
  Beta  occ. eigenvalues --   -0.79867  -0.73234  -0.56798  -0.51578
  Beta virt. eigenvalues --   -0.32048  -0.29409  -0.27347  -0.17239  -0.13589
  Beta virt. eigenvalues --   -0.10992  -0.09421  -0.08815  -0.08345  -0.07531
  Beta virt. eigenvalues --   -0.05969  -0.05257  -0.05008  -0.01877   0.10287

 Mulliken charges and spin densities:
               1          2
     1  Si   0.559099   0.438140
     2  Si   0.527764   0.574055
     3  H   -0.056214  -0.007060
     4  H   -0.030650  -0.005135
 Sum of Mulliken charges =   1.00000   1.00000

 Dipole moment (field-independent basis, Debye):
    X=              0.3061    Y=             -0.3635    Z=             -0.3675  Tot=              0.6007
 Quadrupole moment (field-independent basis, Debye-Ang):
   XX=            -12.2715   YY=            -22.9631   ZZ=            -22.7697
   XY=              0.8935   XZ=             -0.7261   YZ=              0.8614

 Normal termination of Gaussian 16 at Mon Apr 21 22:58:30 2025.
