 Gaussian 16, Revision A.03,
 Gaussian 16:  ES64L-G16RevA.03 25-Dec-2016

 --------------------------------------------
 #p opt UM062X/6-311+G** nosymm int=superfine
 --------------------------------------------

 -------------------
 Title Card Required
 -------------------
 Symbolic Z-matrix:
 Charge =  1 Multiplicity = 2

 SCF Done:  E(UM062X) =  -75.4529894520     A.U. after    9 cycles
 SCF Done:  E(UM062X) =  -75.7487818436     A.U. after   10 cycles
 SCF Done:  E(UM062X) =  -75.9267494172     A.U. after   11 cycles
 SCF Done:  E(UM062X) =  -75.9299607461     A.U. after   10 cycles
 SCF Done:  E(UM062X) =  -75.9301296894     A.U. after   14 cycles
 Optimization completed.
    -- Stationary point found.

                          Input orientation:
 ---------------------------------------------------------------------
 Center     Atomic      Atomic             Coordinates (Angstroms)
 Number     Number       Type             X           Y           Z
 ---------------------------------------------------------------------
      1          6           0       -0.391446    0.000000    0.000000
      2          6           0        0.391446    0.000000    0.000000
      3          1           0       -1.456190    0.000000    0.000000
      4          1           0        1.456188   -0.000000   -0.000000
 ---------------------------------------------------------------------

 Alpha  occ. eigenvalues --  -10.96988 -10.87912  -1.33215  -0.93801  -0.93356
 Alpha  occ. eigenvalues --   -0.92001  -0.89448
 Alpha virt. eigenvalues --   -0.15084  -0.13756  -0.13215  -0.12607  -0.12436
 Alpha virt. eigenvalues --   -0.12046  -0.11665  -0.00842  -0.00229   0.00281
 Alpha virt. eigenvalues --    0.02792   0.03507   0.17260   0.22100   0.23106

  Beta  occ. eigenvalues --  -10.96344 -10.87474  -1.25956  -0.91837  -0.90878
  Beta  occ. eigenvalues --   -0.86590
  Beta virt. eigenvalues --   -0.59344  -0.15453  -0.12933  -0.12459  -0.12113
  Beta virt. eigenvalues --   -0.12093  -0.11830  -0.11567  -0.00018   0.00925
  Beta virt. eigenvalues --    0.01992   0.03378   0.04075   0.17506   0.21105

 Mulliken charges and spin densities:
               1          2
     1  C    0.269069   0.525240
     2  C    0.269066   0.525239
     3  H    0.230933  -0.025239
     4  H    0.230932  -0.025239
 Sum of Mulliken charges =   1.00000   1.00000

 Dipole moment (field-independent basis, Debye):
    X=             -0.0000    Y=             -0.0000    Z=             -0.0000  Tot=              0.0000
 Quadrupole moment (field-independent basis, Debye-Ang):
   XX=             -3.0956   YY=             -8.1783   ZZ=             -9.4229
   XY=             -0.0000   XZ=             -0.0000   YZ=              0.1713

 Normal termination of Gaussian 16 at Tue Nov 19 12:35:16 2024.
