 Gaussian 16, Revision A.03,
 Gaussian 16:  ES64L-G16RevA.03 25-Dec-2016

 --------------------------------------------
 #p opt UM062X/6-311+G** nosymm int=superfine
 --------------------------------------------

 -------------------
 Title Card Required
 -------------------
 Symbolic Z-matrix:
 Charge =  0 Multiplicity = 1

 SCF Done:  E(UM062X) =  -94.4643260049     A.U. after   11 cycles
 SCF Done:  E(UM062X) =  -94.4711782442     A.U. after   11 cycles
 SCF Done:  E(UM062X) =  -94.4715830238     A.U. after   10 cycles
 SCF Done:  E(UM062X) =  -94.4676905532     A.U. after   12 cycles
 SCF Done:  E(UM062X) =  -94.4716652610     A.U. after   10 cycles
 SCF Done:  E(UM062X) =  -94.4712550056     A.U. after   11 cycles
 SCF Done:  E(UM062X) =  -94.4716683227     A.U. after    9 cycles
 Optimization completed.
    -- Stationary point found.

                          Input orientation:
 ---------------------------------------------------------------------
 Center     Atomic      Atomic             Coordinates (Angstroms)
 Number     Number       Type             X           Y           Z
 ---------------------------------------------------------------------
      1          6           0       -0.881637    0.000000    0.000000
      2          7           0        0.881637    0.000000    0.000000
      3          1           0       -1.409642   -0.943831   -0.010765
      4          1           0        1.005881   -1.021918   -0.011694
      5          1           0       -1.318395    0.986794    0.011359
 ---------------------------------------------------------------------

 Alpha  occ. eigenvalues --  -14.80499 -10.64639  -0.90938  -0.75510  -0.55094
 Alpha  occ. eigenvalues --   -0.45694  -0.38048  -0.32207
 Alpha virt. eigenvalues --   -0.07712   0.01923   0.02538   0.04887   0.07705
 Alpha virt. eigenvalues --    0.10793   0.13967   0.15706   0.16000   0.17532
 Alpha virt. eigenvalues --    0.21049   0.23468   0.26617   0.42548   0.45040

  Beta  occ. eigenvalues --  -14.80499 -10.64639  -0.90938  -0.75510  -0.55094
  Beta  occ. eigenvalues --   -0.45694  -0.38048  -0.32207
  Beta virt. eigenvalues --   -0.07712   0.01923   0.02538   0.04887   0.07705
  Beta virt. eigenvalues --    0.10793   0.13967   0.15706   0.16000   0.17532
  Beta virt. eigenvalues --    0.21049   0.23468   0.26617   0.42548   0.45040

 Mulliken charges and spin densities:
               1          2
     1  C   -0.302551  -0.000000
     2  N   -0.274827   0.000000
     3  H    0.185589   0.000000
     4  H    0.195225  -0.000000
     5  H    0.196564   0.000000
 Sum of Mulliken charges =  -0.00000   0.00000

 Dipole moment (field-independent basis, Debye):
    X=             -2.3945    Y=             -1.4699    Z=             -0.0167  Tot=              2.8097
 Quadrupole moment (field-independent basis, Debye-Ang):
   XX=            -12.5319   YY=            -11.3797   ZZ=            -15.2790
   XY=             -1.9154   XZ=             -0.0220   YZ=              0.0447

 Normal termination of Gaussian 16 at Mon Apr 21 18:16:15 2025.
