 Gaussian 16, Revision A.03,
 Gaussian 16:  ES64L-G16RevA.03 25-Dec-2016

 --------------------------------------------
 #p opt UM062X/6-311+G** nosymm int=superfine
 --------------------------------------------

 -------------------
 Title Card Required
 -------------------
 Symbolic Z-matrix:
 Charge =  0 Multiplicity = 1

 SCF Done:  E(UM062X) =  -683.829939780     A.U. after    9 cycles
 SCF Done:  E(UM062X) =  -683.830111489     A.U. after    8 cycles
 SCF Done:  E(UM062X) =  -683.830137938     A.U. after    7 cycles
 Optimization completed.
    -- Stationary point found.

                          Input orientation:
 ---------------------------------------------------------------------
 Center     Atomic      Atomic             Coordinates (Angstroms)
 Number     Number       Type             X           Y           Z
 ---------------------------------------------------------------------
      1         15           0       -1.109490    0.000000    0.000000
      2         15           0        1.109490    0.000000    0.000000
      3          1           0       -1.169792   -1.419204    0.000000
      4          1           0        1.169792    1.419204    0.000000
 ---------------------------------------------------------------------

 Alpha  occ. eigenvalues --  -78.05365 -78.05365  -6.87664  -6.87657  -4.99173
 Alpha  occ. eigenvalues --   -4.99169  -4.99089  -4.99074  -4.98928  -4.98915
 Alpha  occ. eigenvalues --   -0.75118  -0.63076  -0.41848  -0.40622  -0.31846
 Alpha  occ. eigenvalues --   -0.30486
 Alpha virt. eigenvalues --   -0.09770   0.00477   0.01802   0.03473   0.04245
 Alpha virt. eigenvalues --    0.04728   0.05439   0.06487   0.07028   0.08372
 Alpha virt. eigenvalues --    0.11339   0.13119   0.26342   0.29456   0.31421

  Beta  occ. eigenvalues --  -78.05365 -78.05365  -6.87664  -6.87657  -4.99173
  Beta  occ. eigenvalues --   -4.99169  -4.99089  -4.99074  -4.98928  -4.98915
  Beta  occ. eigenvalues --   -0.75118  -0.63076  -0.41848  -0.40622  -0.31846
  Beta  occ. eigenvalues --   -0.30486
  Beta virt. eigenvalues --   -0.09770   0.00477   0.01802   0.03473   0.04245
  Beta virt. eigenvalues --    0.04728   0.05439   0.06487   0.07028   0.08372
  Beta virt. eigenvalues --    0.11339   0.13119   0.26342   0.29456   0.31421

 Mulliken charges and spin densities:
               1          2
     1  P    0.016397  -0.000000
     2  P    0.016397   0.000000
     3  H   -0.016397   0.000000
     4  H   -0.016397  -0.000000
 Sum of Mulliken charges =  -0.00000  -0.00000

 Dipole moment (field-independent basis, Debye):
    X=             -0.0000    Y=              0.0000    Z=              0.0000  Tot=              0.0000
 Quadrupole moment (field-independent basis, Debye-Ang):
   XX=            -29.1658   YY=            -27.4516   ZZ=            -28.9168
   XY=              2.5747   XZ=             -0.0000   YZ=              0.0000

 Normal termination of Gaussian 16 at Mon Apr 21 21:00:52 2025.
