 Gaussian 16, Revision A.03,
 Gaussian 16:  ES64L-G16RevA.03 25-Dec-2016

 --------------------------------------------
 #p opt UM062X/6-311+G** nosymm int=superfine
 --------------------------------------------

 -------------------
 Title Card Required
 -------------------
 Symbolic Z-matrix:
 Charge =  0 Multiplicity = 1

 SCF Done:  E(UM062X) =  -582.436761851     A.U. after    9 cycles
 SCF Done:  E(UM062X) =  -582.438214563     A.U. after    8 cycles
 SCF Done:  E(UM062X) =  -582.438476697     A.U. after    8 cycles
 Optimization completed.
    -- Stationary point found.

                          Input orientation:
 ---------------------------------------------------------------------
 Center     Atomic      Atomic             Coordinates (Angstroms)
 Number     Number       Type             X           Y           Z
 ---------------------------------------------------------------------
      1         14           0       -1.769819    0.000000    0.000000
      2         14           0        1.769819    0.000000    0.000000
      3          1           0        2.204800   -1.410660   -0.000057
      4          1           0       -2.204829   -0.705196    1.221746
      5          1           0        2.204929    0.705368   -1.221611
      6          1           0        2.204836    0.705248    1.221714
      7          1           0       -2.204803    1.410659   -0.000116
      8          1           0       -2.204933   -0.705422   -1.221579
 ---------------------------------------------------------------------

 Alpha  occ. eigenvalues --  -67.01356 -67.01356  -5.56187  -5.56186  -3.87398
 Alpha  occ. eigenvalues --   -3.87397  -3.87221  -3.87221  -3.87220  -3.87220
 Alpha  occ. eigenvalues --   -0.61122  -0.60060  -0.41697  -0.41697  -0.41333
 Alpha  occ. eigenvalues --   -0.41333  -0.25438
 Alpha virt. eigenvalues --   -0.06338   0.02173   0.02918   0.02918   0.03683
 Alpha virt. eigenvalues --    0.05111   0.05393   0.05393   0.07049   0.07049
 Alpha virt. eigenvalues --    0.07449   0.09094   0.09094   0.14157   0.16879

  Beta  occ. eigenvalues --  -67.01356 -67.01356  -5.56187  -5.56186  -3.87398
  Beta  occ. eigenvalues --   -3.87397  -3.87221  -3.87221  -3.87220  -3.87220
  Beta  occ. eigenvalues --   -0.61122  -0.60060  -0.41697  -0.41697  -0.41333
  Beta  occ. eigenvalues --   -0.41333  -0.25438
  Beta virt. eigenvalues --   -0.06338   0.02173   0.02918   0.02918   0.03683
  Beta virt. eigenvalues --    0.05111   0.05393   0.05393   0.07049   0.07049
  Beta virt. eigenvalues --    0.07449   0.09094   0.09094   0.14157   0.16879

 Mulliken charges and spin densities:
               1          2
     1  Si   0.283472   0.000000
     2  Si   0.283472   0.000000
     3  H   -0.094491   0.000000
     4  H   -0.094490   0.000000
     5  H   -0.094491  -0.000000
     6  H   -0.094490   0.000000
     7  H   -0.094491  -0.000000
     8  H   -0.094491  -0.000000
 Sum of Mulliken charges =  -0.00000   0.00000

 Dipole moment (field-independent basis, Debye):
    X=             -0.0000    Y=             -0.0000    Z=              0.0000  Tot=              0.0000
 Quadrupole moment (field-independent basis, Debye-Ang):
   XX=            -29.7882   YY=            -31.8926   ZZ=            -31.8926
   XY=              0.0001   XZ=              0.0000   YZ=              0.0000

 Normal termination of Gaussian 16 at Mon Apr 21 20:18:55 2025.
