 Gaussian 16, Revision A.03,
 Gaussian 16:  ES64L-G16RevA.03 25-Dec-2016

 --------------------------------------------
 #p opt UM062X/6-311+G** nosymm int=superfine
 --------------------------------------------

 -------------------
 Title Card Required
 -------------------
 Symbolic Z-matrix:
 Charge =  1 Multiplicity = 2

 SCF Done:  E(UM062X) =  -579.680122568     A.U. after   14 cycles
 SCF Done:  E(UM062X) =  -579.681973109     A.U. after   12 cycles
 SCF Done:  E(UM062X) =  -579.685366885     A.U. after   15 cycles
 SCF Done:  E(UM062X) =  -579.686349097     A.U. after   14 cycles
 SCF Done:  E(UM062X) =  -579.686704907     A.U. after   14 cycles
 SCF Done:  E(UM062X) =  -579.686758303     A.U. after   11 cycles
 SCF Done:  E(UM062X) =  -579.686771344     A.U. after   12 cycles
 SCF Done:  E(UM062X) =  -579.686782195     A.U. after   12 cycles
 SCF Done:  E(UM062X) =  -579.686791836     A.U. after   12 cycles
 SCF Done:  E(UM062X) =  -579.686800451     A.U. after   10 cycles
 SCF Done:  E(UM062X) =  -579.686804755     A.U. after   12 cycles
 SCF Done:  E(UM062X) =  -579.686804792     A.U. after    9 cycles
 Optimization completed.
    -- Stationary point found.

                          Input orientation:
 ---------------------------------------------------------------------
 Center     Atomic      Atomic             Coordinates (Angstroms)
 Number     Number       Type             X           Y           Z
 ---------------------------------------------------------------------
      1         14           0       -2.027975    0.000000    0.000000
      2         14           0        2.027975    0.000000    0.000000
      3          1           0       -2.120272   -1.505076   -0.000000
      4          1           0        2.120253    1.505081   -0.000000
 ---------------------------------------------------------------------

 Alpha  occ. eigenvalues --  -67.26715 -67.26715  -5.80881  -5.80879  -4.11977
 Alpha  occ. eigenvalues --   -4.11977  -4.11898  -4.11898  -4.11245  -4.11245
 Alpha  occ. eigenvalues --   -0.76002  -0.75156  -0.52533  -0.52332  -0.41445
 Alpha virt. eigenvalues --   -0.28590  -0.28000  -0.26768  -0.11028  -0.09685
 Alpha virt. eigenvalues --   -0.08664  -0.08389  -0.07839  -0.06824  -0.05629
 Alpha virt. eigenvalues --   -0.05584  -0.05060  -0.02727   0.13268   0.13470

  Beta  occ. eigenvalues --  -67.26462 -67.26462  -5.80808  -5.80806  -4.11836
  Beta  occ. eigenvalues --   -4.11836  -4.11307  -4.11306  -4.11134  -4.11134
  Beta  occ. eigenvalues --   -0.74071  -0.73538  -0.51920  -0.51557
  Beta virt. eigenvalues --   -0.28082  -0.27750  -0.26329  -0.23220  -0.13529
  Beta virt. eigenvalues --   -0.10510  -0.09026  -0.08612  -0.08384  -0.06703
  Beta virt. eigenvalues --   -0.05536  -0.05386  -0.05275  -0.02754   0.12221

 Mulliken charges and spin densities:
               1          2
     1  Si   0.580292   0.509987
     2  Si   0.580294   0.509985
     3  H   -0.080293  -0.009986
     4  H   -0.080293  -0.009986
 Sum of Mulliken charges =   1.00000   1.00000

 Dipole moment (field-independent basis, Debye):
    X=             -0.0000    Y=             -0.0000    Z=             -0.0000  Tot=              0.0000
 Quadrupole moment (field-independent basis, Debye-Ang):
   XX=              0.4954   YY=            -27.6589   ZZ=            -19.9045
   XY=              2.2196   XZ=             -0.0000   YZ=              0.0000

 Normal termination of Gaussian 16 at Mon Apr 21 20:42:59 2025.
