 Gaussian 16, Revision A.03,
 Gaussian 16:  ES64L-G16RevA.03 25-Dec-2016

 --------------------------------------------
 #p opt UM062X/6-311+G** nosymm int=superfine
 --------------------------------------------

 -------------------
 Title Card Required
 -------------------
 Symbolic Z-matrix:
 Charge =  0 Multiplicity = 1

 SCF Done:  E(UM062X) =  -80.4062601649     A.U. after   17 cycles
 SCF Done:  E(UM062X) =  -80.4098408424     A.U. after   11 cycles
 SCF Done:  E(UM062X) =  -80.4098979575     A.U. after   11 cycles
 SCF Done:  E(UM062X) =  -80.4098991963     A.U. after   12 cycles
 SCF Done:  E(UM062X) =  -80.4119582633     A.U. after   15 cycles
 SCF Done:  E(UM062X) =  -80.3816986696     A.U. after   18 cycles
 SCF Done:  E(UM062X) =  -80.4189095893     A.U. after   14 cycles
 SCF Done:  E(UM062X) =  -80.4231601087     A.U. after   19 cycles
 SCF Done:  E(UM062X) =  -80.4234443847     A.U. after   16 cycles
 SCF Done:  E(UM062X) =  -80.4248950810     A.U. after   20 cycles
 SCF Done:  E(UM062X) =  -80.4125420278     A.U. after   22 cycles
 SCF Done:  E(UM062X) =  -80.4224138923     A.U. after   16 cycles
 SCF Done:  E(UM062X) =  -80.4257872270     A.U. after   16 cycles
 SCF Done:  E(UM062X) =  -80.4268186953     A.U. after   20 cycles
 SCF Done:  E(UM062X) =  -80.4271899448     A.U. after   18 cycles
 SCF Done:  E(UM062X) =  -80.4271988129     A.U. after   14 cycles
 SCF Done:  E(UM062X) =  -80.4272027403     A.U. after   14 cycles
 SCF Done:  E(UM062X) =  -80.4272039406     A.U. after   13 cycles
 Optimization completed.
    -- Stationary point found.

                          Input orientation:
 ---------------------------------------------------------------------
 Center     Atomic      Atomic             Coordinates (Angstroms)
 Number     Number       Type             X           Y           Z
 ---------------------------------------------------------------------
      1          5           0       -1.642188   -0.000463   -0.000000
      2          7           0        1.641992    0.000183    0.000000
      3          1           0       -2.817650   -0.297879    0.141070
      4          1           0        1.409140    0.912135   -0.433281
 ---------------------------------------------------------------------

 Alpha  occ. eigenvalues --  -14.80167  -7.16159  -0.86624  -0.57666  -0.43497
 Alpha  occ. eigenvalues --   -0.30942  -0.30918
 Alpha virt. eigenvalues --   -0.09929  -0.06548  -0.06399   0.01368   0.04302
 Alpha virt. eigenvalues --    0.05536   0.05554   0.11278   0.14964   0.16337
 Alpha virt. eigenvalues --    0.17110   0.20770   0.24392   0.35493   0.39985

  Beta  occ. eigenvalues --  -14.80167  -7.16159  -0.86624  -0.57666  -0.43497
  Beta  occ. eigenvalues --   -0.30942  -0.30918
  Beta virt. eigenvalues --   -0.09929  -0.06548  -0.06399   0.01368   0.04302
  Beta virt. eigenvalues --    0.05536   0.05554   0.11278   0.14964   0.16337
  Beta virt. eigenvalues --    0.17110   0.20770   0.24392   0.35493   0.39985

 Mulliken charges and spin densities:
               1          2
     1  B    0.028131   0.000000
     2  N   -0.242600  -0.000000
     3  H    0.020298   0.000000
     4  H    0.194171   0.000000
 Sum of Mulliken charges =  -0.00000   0.00000

 Dipole moment (field-independent basis, Debye):
    X=             -3.2423    Y=              1.0366    Z=             -0.4929  Tot=              3.4394
 Quadrupole moment (field-independent basis, Debye-Ang):
   XX=             -9.9619   YY=            -13.0269   ZZ=            -14.6621
   XY=              2.7038   XZ=             -1.2838   YZ=             -1.0031

 Normal termination of Gaussian 16 at Mon Apr 21 18:10:11 2025.
