 Gaussian 16, Revision A.03,
 Gaussian 16:  ES64L-G16RevA.03 25-Dec-2016

 --------------------------------------------
 #p opt UM062X/6-311+G** nosymm int=superfine
 --------------------------------------------

 -------------------
 Title Card Required
 -------------------
 Symbolic Z-matrix:
 Charge =  0 Multiplicity = 1

 SCF Done:  E(UM062X) =  -110.175883171     A.U. after   13 cycles
 SCF Done:  E(UM062X) =  -110.177897023     A.U. after   15 cycles
 SCF Done:  E(UM062X) =  -110.181791843     A.U. after   17 cycles
 SCF Done:  E(UM062X) =  -110.183136623     A.U. after   15 cycles
 SCF Done:  E(UM062X) =  -110.183144392     A.U. after   15 cycles
 Optimization completed.
    -- Stationary point found.

                          Input orientation:
 ---------------------------------------------------------------------
 Center     Atomic      Atomic             Coordinates (Angstroms)
 Number     Number       Type             X           Y           Z
 ---------------------------------------------------------------------
      1          7           0       -1.715428    0.000000    0.000000
      2          7           0        1.715428    0.000000    0.000000
      3          1           0       -1.482933   -1.013332   -0.000000
      4          1           0        1.482933    1.013332   -0.000000
 ---------------------------------------------------------------------

 Alpha  occ. eigenvalues --  -14.88514 -14.88512  -0.92863  -0.92244  -0.49149
 Alpha  occ. eigenvalues --   -0.48794  -0.31355  -0.30167
 Alpha virt. eigenvalues --   -0.21502  -0.20127   0.05085   0.07034   0.10763
 Alpha virt. eigenvalues --    0.11428   0.13165   0.14634   0.15413   0.17652
 Alpha virt. eigenvalues --    0.19178   0.22687   0.52504   0.54821   0.73831

  Beta  occ. eigenvalues --  -14.88514 -14.88512  -0.92863  -0.92244  -0.49149
  Beta  occ. eigenvalues --   -0.48794  -0.31355  -0.30167
  Beta virt. eigenvalues --   -0.21502  -0.20127   0.05085   0.07034   0.10763
  Beta virt. eigenvalues --    0.11428   0.13165   0.14634   0.15413   0.17652
  Beta virt. eigenvalues --    0.19178   0.22687   0.52504   0.54821   0.73831

 Mulliken charges and spin densities:
               1          2
     1  N   -0.236147  -0.000000
     2  N   -0.236147   0.000000
     3  H    0.236147   0.000000
     4  H    0.236147  -0.000000
 Sum of Mulliken charges =  -0.00000  -0.00000

 Dipole moment (field-independent basis, Debye):
    X=              0.0000    Y=              0.0000    Z=             -0.0000  Tot=              0.0000
 Quadrupole moment (field-independent basis, Debye-Ang):
   XX=            -14.9394   YY=            -11.2849   ZZ=            -14.2046
   XY=              5.6374   XZ=              0.0000   YZ=              0.0000

 Normal termination of Gaussian 16 at Thu May 15 15:42:06 2025.
