 Gaussian 16, Revision A.03,
 Gaussian 16:  ES64L-G16RevA.03 25-Dec-2016

 --------------------------------------------
 #p opt UM062X/6-311+G** nosymm int=superfine
 --------------------------------------------

 -------------------
 Title Card Required
 -------------------
 Symbolic Z-matrix:
 Charge =  0 Multiplicity = 1

 SCF Done:  E(UM062X) =  -474.483486498     A.U. after   15 cycles
 SCF Done:  E(UM062X) =  -474.487214457     A.U. after   14 cycles
 SCF Done:  E(UM062X) =  -474.488031903     A.U. after   15 cycles
 SCF Done:  E(UM062X) =  -474.488148236     A.U. after   14 cycles
 SCF Done:  E(UM062X) =  -474.488148850     A.U. after   11 cycles
 SCF Done:  E(UM062X) =  -474.488148914     A.U. after    8 cycles
 Optimization completed.
    -- Stationary point found.

                          Input orientation:
 ---------------------------------------------------------------------
 Center     Atomic      Atomic             Coordinates (Angstroms)
 Number     Number       Type             X           Y           Z
 ---------------------------------------------------------------------
      1          8           0       -1.164392    0.000000    0.000000
      2         16           0        1.164392    0.000000    0.000000
      3          1           0       -1.237231   -0.953805   -0.148636
      4          1           0        1.103897    0.319706    1.304190
 ---------------------------------------------------------------------

 Alpha  occ. eigenvalues --  -89.97020 -19.67283  -8.33047  -6.25265  -6.24899
 Alpha  occ. eigenvalues --   -6.24358  -1.09394  -0.82878  -0.53242  -0.49203
 Alpha  occ. eigenvalues --   -0.41046  -0.39819  -0.34497
 Alpha virt. eigenvalues --   -0.13316   0.01537   0.04130   0.04855   0.05774
 Alpha virt. eigenvalues --    0.07650   0.15371   0.19490   0.20005   0.21696
 Alpha virt. eigenvalues --    0.27247   0.31553   0.33932   0.35155   0.40553

  Beta  occ. eigenvalues --  -89.97020 -19.67283  -8.33047  -6.25265  -6.24899
  Beta  occ. eigenvalues --   -6.24358  -1.09394  -0.82878  -0.53242  -0.49203
  Beta  occ. eigenvalues --   -0.41046  -0.39819  -0.34497
  Beta virt. eigenvalues --   -0.13316   0.01537   0.04130   0.04855   0.05774
  Beta virt. eigenvalues --    0.07650   0.15371   0.19490   0.20005   0.21696
  Beta virt. eigenvalues --    0.27247   0.31553   0.33932   0.35155   0.40553

 Mulliken charges and spin densities:
               1          2
     1  O   -0.436459   0.000000
     2  S    0.077363  -0.000000
     3  H    0.252187  -0.000000
     4  H    0.106909  -0.000000
 Sum of Mulliken charges =  -0.00000   0.00000

 Dipole moment (field-independent basis, Debye):
    X=              1.6495    Y=             -1.3657    Z=              0.8372  Tot=              2.2993
 Quadrupole moment (field-independent basis, Debye-Ang):
   XX=            -18.4853   YY=            -19.7963   ZZ=            -18.5577
   XY=              2.8007   XZ=              1.8607   YZ=              1.3416

 Normal termination of Gaussian 16 at Thu May 15 12:56:11 2025.
