 Gaussian 16, Revision A.03,
 Gaussian 16:  ES64L-G16RevA.03 25-Dec-2016

 --------------------------------------------
 #p opt UM062X/6-311+G** nosymm int=superfine
 --------------------------------------------

 -------------------
 Title Card Required
 -------------------
 Symbolic Z-matrix:
 Charge =  1 Multiplicity = 2

 SCF Done:  E(UM062X) =  -79.2021957914     A.U. after   24 cycles
 SCF Done:  E(UM062X) =  -79.2700624424     A.U. after   18 cycles
 SCF Done:  E(UM062X) =  -79.3339744413     A.U. after   15 cycles
 SCF Done:  E(UM062X) =  -79.3632232300     A.U. after   13 cycles
 SCF Done:  E(UM062X) =  -79.3645226606     A.U. after   10 cycles
 SCF Done:  E(UM062X) =  -79.3645862140     A.U. after    8 cycles
 SCF Done:  E(UM062X) =  -79.3646019223     A.U. after   10 cycles
 SCF Done:  E(UM062X) =  -79.3646065034     A.U. after   10 cycles
 SCF Done:  E(UM062X) =  -79.3646081825     A.U. after    9 cycles
 SCF Done:  E(UM062X) =  -79.3646092820     A.U. after    9 cycles
 Optimization completed.
    -- Stationary point found.

                          Input orientation:
 ---------------------------------------------------------------------
 Center     Atomic      Atomic             Coordinates (Angstroms)
 Number     Number       Type             X           Y           Z
 ---------------------------------------------------------------------
      1          6           0       -0.684803    0.000000    0.000000
      2          6           0        0.684803    0.000000    0.000000
      3          1           0        1.217121   -0.816990    0.478184
      4          1           0       -1.130643   -1.011004   -0.292091
      5          1           0        1.130667    1.011024    0.291940
      6          1           0        1.131476    0.245227   -1.022359
      7          1           0       -1.217120    0.817014   -0.478145
      8          1           0       -1.131499   -0.245363    1.022303
 ---------------------------------------------------------------------

 Alpha  occ. eigenvalues --  -10.82266 -10.82183  -1.18015  -1.00103  -0.82349
 Alpha  occ. eigenvalues --   -0.77736  -0.77454  -0.69976  -0.64359
 Alpha virt. eigenvalues --   -0.16179  -0.13550  -0.12122  -0.11861  -0.08459
 Alpha virt. eigenvalues --   -0.07279  -0.06750  -0.06654  -0.05424  -0.02036
 Alpha virt. eigenvalues --   -0.01105  -0.00629   0.05937   0.06437   0.09543

  Beta  occ. eigenvalues --  -10.82176 -10.82084  -1.16166  -0.96391  -0.81301
  Beta  occ. eigenvalues --   -0.75629  -0.71824  -0.68573
  Beta virt. eigenvalues --   -0.44389  -0.16191  -0.13598  -0.11885  -0.11866
  Beta virt. eigenvalues --   -0.08475  -0.06969  -0.06767  -0.05210  -0.04874
  Beta virt. eigenvalues --   -0.01757  -0.00898  -0.00470   0.06062   0.06863

 Mulliken charges and spin densities:
               1          2
     1  C   -0.407535   0.170699
     2  C   -0.407531   0.170702
     3  H    0.257251  -0.010393
     4  H    0.325342   0.170581
     5  H    0.325337   0.170552
     6  H    0.324946   0.169142
     7  H    0.257250  -0.010393
     8  H    0.324941   0.169111
 Sum of Mulliken charges =   1.00000   1.00000

 Dipole moment (field-independent basis, Debye):
    X=              0.0000    Y=             -0.0001    Z=             -0.0002  Tot=              0.0003
 Quadrupole moment (field-independent basis, Debye-Ang):
   XX=             -6.5925   YY=            -10.0380   ZZ=            -10.8253
   XY=              1.8150   XZ=             -1.0452   YZ=             -0.6903

 Normal termination of Gaussian 16 at Sat Nov 16 15:43:13 2024.
