 Gaussian 16, Revision A.03,
 Gaussian 16:  ES64L-G16RevA.03 25-Dec-2016

 --------------------------------
 #p UM062X/6-311+G** Pop=NBO Read
 --------------------------------

 ------------
 NBO Analysis
 ------------
 Symbolic Z-matrix:
 Charge =  0 Multiplicity = 1

                         Standard orientation:
 ---------------------------------------------------------------------
 Center     Atomic      Atomic             Coordinates (Angstroms)
 Number     Number       Type             X           Y           Z
 ---------------------------------------------------------------------
      1         14           0       -1.169819    0.000005   -0.000002
      2         14           0        1.169819    0.000003   -0.000011
      3          1           0        1.681802   -1.210207   -0.684156
      4          1           0       -1.681706   -1.197562    0.706126
      5          1           0        1.681901    1.197626   -0.705893
      6          1           0        1.681720    0.012538    1.390174
      7          1           0       -1.681808    1.210272    0.684039
      8          1           0       -1.681913   -0.012770   -1.390108
 ---------------------------------------------------------------------

 SCF Done:  E(UM062X) =  -582.476460417     A.U. after    9 cycles

 The electronic state is 1-A.
 Alpha  occ. eigenvalues --  -67.01312 -67.01311  -5.55160  -5.55153  -3.86095
 Alpha  occ. eigenvalues --   -3.86065  -3.86064  -3.86060  -3.86060  -3.86042
 Alpha  occ. eigenvalues --   -0.64571  -0.57879  -0.42287  -0.42287  -0.39667
 Alpha  occ. eigenvalues --   -0.39666  -0.34412
 Alpha virt. eigenvalues --    0.01440   0.01476   0.03925   0.03925   0.04596
 Alpha virt. eigenvalues --    0.05841   0.05841   0.06430   0.06430   0.08018
 Alpha virt. eigenvalues --    0.10732   0.12728   0.12729   0.19547   0.23115

  Beta  occ. eigenvalues --  -67.01312 -67.01311  -5.55160  -5.55153  -3.86095
  Beta  occ. eigenvalues --   -3.86065  -3.86064  -3.86060  -3.86060  -3.86042
  Beta  occ. eigenvalues --   -0.64571  -0.57879  -0.42287  -0.42287  -0.39667
  Beta  occ. eigenvalues --   -0.39666  -0.34412
  Beta virt. eigenvalues --    0.01440   0.01476   0.03925   0.03925   0.04596
  Beta virt. eigenvalues --    0.05841   0.05841   0.06430   0.06430   0.08018
  Beta virt. eigenvalues --    0.10732   0.12728   0.12729   0.19547   0.23115

 Mulliken charges and spin densities:
               1          2
     1  Si   0.319526  -0.000000
     2  Si   0.319526   0.000000
     3  H   -0.106511  -0.000000
     4  H   -0.106511  -0.000000
     5  H   -0.106508  -0.000000
     6  H   -0.106507   0.000000
     7  H   -0.106511  -0.000000
     8  H   -0.106504   0.000000
 Sum of Mulliken charges =  -0.00000  -0.00000

 Dipole moment (field-independent basis, Debye):
    X=              0.0000    Y=              0.0001    Z=             -0.0001  Tot=              0.0002
 Quadrupole moment (field-independent basis, Debye-Ang):
   XX=            -32.4352   YY=            -31.2879   ZZ=            -31.2878
   XY=             -0.0000   XZ=             -0.0000   YZ=              0.0000

 Summary of Natural Population Analysis:

                                       Natural Population
                Natural  -----------------------------------------------
    Atom  No    Charge         Core      Valence    Rydberg      Total
 -----------------------------------------------------------------------
     Si    1    0.20262      4.99944     1.78045    0.01750     6.79738
     Si    2    0.20262      4.99944     1.78045    0.01750     6.79738
      H    3   -0.06754      0.00000     0.56709    0.00045     0.56754
      H    4   -0.06754      0.00000     0.56709    0.00045     0.56754
      H    5   -0.06754      0.00000     0.56709    0.00045     0.56754
      H    6   -0.06754      0.00000     0.56709    0.00045     0.56754
      H    7   -0.06754      0.00000     0.56709    0.00045     0.56754
      H    8   -0.06754      0.00000     0.56709    0.00045     0.56754
 =======================================================================
   * Total *    0.00000      9.99887     6.96345    0.03768    17.00000

 Normal termination of Gaussian 16 at Wed Apr 16 05:48:12 2025.
