 Gaussian 16, Revision A.03,
 Gaussian 16:  ES64L-G16RevA.03 25-Dec-2016

 --------------------------------------------
 #p opt UM062X/6-311+G** nosymm int=superfine
 --------------------------------------------

 -------------------
 Title Card Required
 -------------------
 Symbolic Z-matrix:
 Charge =  1 Multiplicity = 2

 SCF Done:  E(UM062X) =  -79.3111457501     A.U. after   10 cycles
 SCF Done:  E(UM062X) =  -79.3132254457     A.U. after    9 cycles
 SCF Done:  E(UM062X) =  -79.3132600781     A.U. after    9 cycles
 Optimization completed.
    -- Stationary point found.

                          Input orientation:
 ---------------------------------------------------------------------
 Center     Atomic      Atomic             Coordinates (Angstroms)
 Number     Number       Type             X           Y           Z
 ---------------------------------------------------------------------
      1          6           0       -2.268408    0.000000    0.000000
      2          6           0        2.268408    0.000000    0.000000
      3          1           0        2.289186   -0.937281    0.542487
      4          1           0       -2.287117   -0.938373   -0.540662
      5          1           0        2.288285    0.938469    0.540459
      6          1           0        2.287094   -0.001173   -1.082986
      7          1           0       -2.289249    0.937392   -0.542293
      8          1           0       -2.288198    0.000954    1.082969
 ---------------------------------------------------------------------

 Alpha  occ. eigenvalues --  -10.82629 -10.82628  -1.01275  -1.01109  -0.72402
 Alpha  occ. eigenvalues --   -0.72402  -0.72367  -0.72366  -0.45583
 Alpha virt. eigenvalues --   -0.37935  -0.12158  -0.09971  -0.08875  -0.08875
 Alpha virt. eigenvalues --   -0.06184  -0.06183  -0.04487  -0.02383   0.00844
 Alpha virt. eigenvalues --    0.00847   0.01617   0.01619   0.02180   0.09257

  Beta  occ. eigenvalues --  -10.82400 -10.82400  -0.98604  -0.98541  -0.71857
  Beta  occ. eigenvalues --   -0.71857  -0.71818  -0.71817
  Beta virt. eigenvalues --   -0.30652  -0.26673  -0.17006  -0.10252  -0.09870
  Beta virt. eigenvalues --   -0.09869  -0.06095  -0.06094  -0.05878  -0.01406
  Beta virt. eigenvalues --    0.00840   0.00843   0.01863   0.01865   0.02286

 Mulliken charges and spin densities:
               1          2
     1  C   -0.229929   0.560671
     2  C   -0.229931   0.560670
     3  H    0.243326  -0.020224
     4  H    0.243290  -0.020225
     5  H    0.243311  -0.020226
     6  H    0.243293  -0.020221
     7  H    0.243327  -0.020224
     8  H    0.243312  -0.020222
 Sum of Mulliken charges =   1.00000   1.00000

 Dipole moment (field-independent basis, Debye):
    X=             -0.0000    Y=             -0.0000    Z=             -0.0000  Tot=              0.0000
 Quadrupole moment (field-independent basis, Debye-Ang):
   XX=             12.9064   YY=            -11.1235   ZZ=            -11.1236
   XY=             -0.0023   XZ=              0.0014   YZ=              0.0001

 Normal termination of Gaussian 16 at Sat Nov 16 16:13:37 2024.
