 Gaussian 16, Revision A.03,
 Gaussian 16:  ES64L-G16RevA.03 25-Dec-2016

 --------------------------------------------
 #p opt UM062X/6-311+G** nosymm int=superfine
 --------------------------------------------

 -------------------
 Title Card Required
 -------------------
 Symbolic Z-matrix:
 Charge =  0 Multiplicity = 1

 SCF Done:  E(UM062X) =  -78.4690094872     A.U. after    9 cycles
 SCF Done:  E(UM062X) =  -78.4843125474     A.U. after    8 cycles
 SCF Done:  E(UM062X) =  -78.4859673448     A.U. after    7 cycles
 SCF Done:  E(UM062X) =  -78.4859708271     A.U. after    6 cycles
 Optimization completed.
    -- Stationary point found.

                          Input orientation:
 ---------------------------------------------------------------------
 Center     Atomic      Atomic             Coordinates (Angstroms)
 Number     Number       Type             X           Y           Z
 ---------------------------------------------------------------------
      1          6           0       -0.556812    0.000000    0.000000
      2          6           0        0.556812    0.000000    0.000000
      3          1           0       -1.168267   -0.902748   -0.000000
      4          1           0       -1.168255    0.902766   -0.000000
      5          1           0        1.168267    0.902748    0.000000
      6          1           0        1.168255   -0.902766    0.000000
 ---------------------------------------------------------------------

 Alpha  occ. eigenvalues --  -10.50462 -10.49942  -0.91507  -0.64145  -0.56349
 Alpha  occ. eigenvalues --   -0.51599  -0.38282  -0.37548
 Alpha virt. eigenvalues --    0.03374   0.04228   0.04719   0.05830   0.07098
 Alpha virt. eigenvalues --    0.08588   0.09786   0.16117   0.16390   0.17886
 Alpha virt. eigenvalues --    0.18906   0.24337   0.33198   0.40166   0.43785

  Beta  occ. eigenvalues --  -10.50462 -10.49942  -0.91507  -0.64145  -0.56349
  Beta  occ. eigenvalues --   -0.51599  -0.38282  -0.37548
  Beta virt. eigenvalues --    0.03374   0.04228   0.04719   0.05830   0.07098
  Beta virt. eigenvalues --    0.08588   0.09786   0.16117   0.16390   0.17886
  Beta virt. eigenvalues --    0.18906   0.24337   0.33198   0.40166   0.43785

 Mulliken charges and spin densities:
               1          2
     1  C   -0.270366  -0.000000
     2  C   -0.270366   0.000000
     3  H    0.135184   0.000000
     4  H    0.135182   0.000000
     5  H    0.135184  -0.000000
     6  H    0.135182  -0.000000
 Sum of Mulliken charges =  -0.00000   0.00000

 Dipole moment (field-independent basis, Debye):
    X=              0.0000    Y=              0.0000    Z=              0.0000  Tot=              0.0000
 Quadrupole moment (field-independent basis, Debye-Ang):
   XX=            -12.4411   YY=            -12.3488   ZZ=            -14.9127
   XY=              0.0000   XZ=              0.0000   YZ=              0.0000

 Normal termination of Gaussian 16 at Tue Nov 19 10:30:15 2024.
