 Gaussian 16, Revision A.03,
 Gaussian 16:  ES64L-G16RevA.03 25-Dec-2016

 --------------------------------------------
 #p opt UM062X/6-311+G** nosymm int=superfine
 --------------------------------------------

 -------------------
 Title Card Required
 -------------------
 Symbolic Z-matrix:
 Charge =  0 Multiplicity = 1

 SCF Done:  E(UM062X) =  -80.5609909993     A.U. after   16 cycles
 SCF Done:  E(UM062X) =  -80.5611098839     A.U. after   14 cycles
 SCF Done:  E(UM062X) =  -80.5599453223     A.U. after   14 cycles
 SCF Done:  E(UM062X) =  -80.5611814354     A.U. after   12 cycles
 SCF Done:  E(UM062X) =  -80.5611907609     A.U. after   11 cycles
 SCF Done:  E(UM062X) =  -80.5611911001     A.U. after   10 cycles
 Optimization completed.
    -- Stationary point found.

                          Input orientation:
 ---------------------------------------------------------------------
 Center     Atomic      Atomic             Coordinates (Angstroms)
 Number     Number       Type             X           Y           Z
 ---------------------------------------------------------------------
      1          5           0       -0.992110   -0.000109    0.000000
      2          7           0        0.992036    0.000065    0.000000
      3          1           0       -2.160892   -0.152535   -0.116916
      4          1           0        1.061276    0.820666    0.627460
 ---------------------------------------------------------------------

 Alpha  occ. eigenvalues --  -14.77413  -7.20047  -0.85430  -0.60535  -0.43067
 Alpha  occ. eigenvalues --   -0.35953  -0.28188
 Alpha virt. eigenvalues --   -0.07513  -0.06284  -0.00980   0.00801   0.04182
 Alpha virt. eigenvalues --    0.04835   0.06311   0.13527   0.16030   0.18575
 Alpha virt. eigenvalues --    0.20220   0.22855   0.25585   0.36892   0.38564

  Beta  occ. eigenvalues --  -14.77413  -7.20047  -0.85430  -0.60535  -0.43067
  Beta  occ. eigenvalues --   -0.35953  -0.28188
  Beta virt. eigenvalues --   -0.07513  -0.06284  -0.00980   0.00801   0.04182
  Beta virt. eigenvalues --    0.04835   0.06311   0.13527   0.16030   0.18575
  Beta virt. eigenvalues --    0.20220   0.22855   0.25585   0.36892   0.38564

 Mulliken charges and spin densities:
               1          2
     1  B    0.175645  -0.000000
     2  N   -0.438189   0.000000
     3  H    0.073836  -0.000000
     4  H    0.188708  -0.000000
 Sum of Mulliken charges =  -0.00000   0.00000

 Dipole moment (field-independent basis, Debye):
    X=             -3.9686    Y=              0.9788    Z=              0.7483  Tot=              4.1554
 Quadrupole moment (field-independent basis, Debye-Ang):
   XX=            -11.3557   YY=            -13.2337   ZZ=            -14.1576
   XY=              1.5362   XZ=              1.1743   YZ=              1.7004

 Normal termination of Gaussian 16 at Mon Apr 21 22:18:22 2025.
