 Gaussian 16, Revision A.03,
 Gaussian 16:  ES64L-G16RevA.03 25-Dec-2016

 -------------------------------------------------------------------
 #p opt UM062X/6-311+G** nosymm int=superfine SCF=NoVarAcc SCF=tight
 -------------------------------------------------------------------

 -------------------
 Title Card Required
 -------------------
 Symbolic Z-matrix:
 Charge =  1 Multiplicity = 2

 SCF Done:  E(UM062X) =  -77.8754423791     A.U. after    9 cycles
 SCF Done:  E(UM062X) =  -77.8763601819     A.U. after   11 cycles
 SCF Done:  E(UM062X) =  -77.8768814731     A.U. after   13 cycles
 SCF Done:  E(UM062X) =  -77.8768843915     A.U. after   10 cycles
 Optimization completed.
    -- Stationary point found.

                          Input orientation:
 ---------------------------------------------------------------------
 Center     Atomic      Atomic             Coordinates (Angstroms)
 Number     Number       Type             X           Y           Z
 ---------------------------------------------------------------------
      1          6           0       -1.586027    0.000000    0.000000
      2          6           0        1.586027    0.000000    0.000000
      3          1           0       -1.956058   -1.021246   -0.000006
      4          1           0       -1.956034    1.021257   -0.000006
      5          1           0        1.956058    1.021246    0.000006
      6          1           0        1.956033   -1.021257    0.000006
 ---------------------------------------------------------------------

 Alpha  occ. eigenvalues --  -10.91403 -10.91399  -1.01741  -1.00785  -0.78983
 Alpha  occ. eigenvalues --   -0.78713  -0.53992  -0.49550
 Alpha virt. eigenvalues --   -0.39895  -0.37589  -0.12929  -0.10464  -0.10450
 Alpha virt. eigenvalues --   -0.07510  -0.07404  -0.06049  -0.04878  -0.04395
 Alpha virt. eigenvalues --   -0.02982   0.01568   0.02176   0.09350   0.22556

  Beta  occ. eigenvalues --  -10.91132 -10.91130  -0.98970  -0.98208  -0.78626
  Beta  occ. eigenvalues --   -0.78361  -0.52012
  Beta virt. eigenvalues --   -0.35394  -0.30959  -0.29449  -0.13884  -0.10886
  Beta virt. eigenvalues --   -0.10725  -0.07373  -0.07311  -0.06017  -0.04451
  Beta virt. eigenvalues --   -0.03880  -0.03363  -0.00185   0.02330   0.10224

 Mulliken charges and spin densities:
               1          2
     1  C   -0.060196   0.540634
     2  C   -0.060197   0.540639
     3  H    0.280098  -0.020318
     4  H    0.280098  -0.020318
     5  H    0.280098  -0.020318
     6  H    0.280098  -0.020318
 Sum of Mulliken charges =   1.00000   1.00000

 Dipole moment (field-independent basis, Debye):
    X=             -0.0000    Y=             -0.0000    Z=              0.0000  Tot=              0.0000
 Quadrupole moment (field-independent basis, Debye-Ang):
   XX=              7.4583   YY=             -7.7193   ZZ=            -13.0372
   XY=              0.0000   XZ=              0.0001   YZ=             -0.0000

 Normal termination of Gaussian 16 at Tue Dec  3 14:43:51 2024.
