 Gaussian 16, Revision A.03,
 Gaussian 16:  ES64L-G16RevA.03 25-Dec-2016

 --------------------------------------------
 #p opt UM062X/6-311+G** nosymm int=superfine
 --------------------------------------------

 -------------------
 Title Card Required
 -------------------
 Symbolic Z-matrix:
 Charge =  0 Multiplicity = 1

 SCF Done:  E(UM062X) =  -114.301617373     A.U. after   11 cycles
 SCF Done:  E(UM062X) =  -114.304673841     A.U. after   10 cycles
 SCF Done:  E(UM062X) =  -114.305608889     A.U. after   10 cycles
 SCF Done:  E(UM062X) =  -114.305618661     A.U. after    9 cycles
 SCF Done:  E(UM062X) =  -114.305618055     A.U. after    9 cycles
 SCF Done:  E(UM062X) =  -114.305618089     A.U. after   10 cycles
 SCF Done:  E(UM062X) =  -114.305618609     A.U. after    9 cycles
 Optimization completed.
    -- Stationary point found.

                          Input orientation:
 ---------------------------------------------------------------------
 Center     Atomic      Atomic             Coordinates (Angstroms)
 Number     Number       Type             X           Y           Z
 ---------------------------------------------------------------------
      1          6           0       -0.873311    0.000000    0.000000
      2          8           0        0.873311    0.000000    0.000000
      3          1           0       -1.325745   -0.982098    0.000580
      4          1           0       -1.325745    0.982098    0.000581
 ---------------------------------------------------------------------

 Alpha  occ. eigenvalues --  -19.67270 -10.70366  -1.01536  -0.79682  -0.58398
 Alpha  occ. eigenvalues --   -0.44182  -0.36490  -0.36208
 Alpha virt. eigenvalues --   -0.11607   0.00129   0.02510   0.04201   0.06650
 Alpha virt. eigenvalues --    0.09216   0.13800   0.18968   0.21381   0.23961
 Alpha virt. eigenvalues --    0.26511   0.33019   0.40466   0.47123   0.54214

  Beta  occ. eigenvalues --  -19.67270 -10.70366  -1.01536  -0.79682  -0.58398
  Beta  occ. eigenvalues --   -0.44182  -0.36490  -0.36208
  Beta virt. eigenvalues --   -0.11607   0.00129   0.02510   0.04201   0.06650
  Beta virt. eigenvalues --    0.09216   0.13800   0.18968   0.21381   0.23961
  Beta virt. eigenvalues --    0.26511   0.33019   0.40466   0.47123   0.54214

 Mulliken charges and spin densities:
               1          2
     1  C   -0.096546  -0.000000
     2  O   -0.314961   0.000000
     3  H    0.205753   0.000000
     4  H    0.205753   0.000000
 Sum of Mulliken charges =  -0.00000  -0.00000

 Dipole moment (field-independent basis, Debye):
    X=             -4.1580    Y=             -0.0000    Z=              0.0011  Tot=              4.1580
 Quadrupole moment (field-independent basis, Debye-Ang):
   XX=            -10.8902   YY=            -11.3602   ZZ=            -12.9984
   XY=             -0.0000   XZ=             -0.0008   YZ=              0.0000

 Normal termination of Gaussian 16 at Mon Apr 21 18:48:02 2025.
