 Gaussian 16, Revision A.03,
 Gaussian 16:  ES64L-G16RevA.03 25-Dec-2016

 --------------------------------------------
 #p opt UM062X/6-311+G** nosymm int=superfine
 --------------------------------------------

 -------------------
 Title Card Required
 -------------------
 Symbolic Z-matrix:
 Charge =  0 Multiplicity = 1

 SCF Done:  E(UM062X) =  -683.577061174     A.U. after   11 cycles
 SCF Done:  E(UM062X) =  -683.577253384     A.U. after   10 cycles
 SCF Done:  E(UM062X) =  -683.577654327     A.U. after   12 cycles
 SCF Done:  E(UM062X) =  -683.577792396     A.U. after   15 cycles
 SCF Done:  E(UM062X) =  -683.577798903     A.U. after   19 cycles
 Optimization completed.
    -- Stationary point found.

                          Input orientation:
 ---------------------------------------------------------------------
 Center     Atomic      Atomic             Coordinates (Angstroms)
 Number     Number       Type             X           Y           Z
 ---------------------------------------------------------------------
      1         15           0       -2.309490    0.000000    0.000000
      2         15           0        2.309490    0.000000    0.000000
      3          1           0       -2.149651   -1.415187    0.000000
      4          1           0        2.149651    1.415187    0.000000
 ---------------------------------------------------------------------

 Alpha  occ. eigenvalues --  -78.08243 -78.08243  -6.90314  -6.90314  -5.01721
 Alpha  occ. eigenvalues --   -5.01721  -5.01704  -5.01704  -5.01530  -5.01530
 Alpha  occ. eigenvalues --   -0.68544  -0.68156  -0.40547  -0.40481  -0.24744
 Alpha  occ. eigenvalues --   -0.23721
 Alpha virt. eigenvalues --   -0.17393  -0.16249   0.01860   0.03035   0.03714
 Alpha virt. eigenvalues --    0.04426   0.05537   0.06037   0.06370   0.07392
 Alpha virt. eigenvalues --    0.08158   0.11312   0.28775   0.28820   0.30736

  Beta  occ. eigenvalues --  -78.08243 -78.08243  -6.90314  -6.90314  -5.01721
  Beta  occ. eigenvalues --   -5.01721  -5.01704  -5.01704  -5.01530  -5.01530
  Beta  occ. eigenvalues --   -0.68544  -0.68156  -0.40547  -0.40481  -0.24744
  Beta  occ. eigenvalues --   -0.23721
  Beta virt. eigenvalues --   -0.17393  -0.16249   0.01860   0.03035   0.03714
  Beta virt. eigenvalues --    0.04426   0.05537   0.06037   0.06370   0.07392
  Beta virt. eigenvalues --    0.08158   0.11312   0.28775   0.28820   0.30736

 Mulliken charges and spin densities:
               1          2
     1  P    0.012467   0.000000
     2  P    0.012467  -0.000000
     3  H   -0.012467  -0.000000
     4  H   -0.012467   0.000000
 Sum of Mulliken charges =  -0.00000  -0.00000

 Dipole moment (field-independent basis, Debye):
    X=             -0.0000    Y=              0.0000    Z=              0.0000  Tot=              0.0000
 Quadrupole moment (field-independent basis, Debye-Ang):
   XX=            -27.3293   YY=            -28.5161   ZZ=            -30.7473
   XY=              3.4682   XZ=             -0.0000   YZ=             -0.0000

 Normal termination of Gaussian 16 at Mon Apr 21 21:13:49 2025.
