 Gaussian 16, Revision A.03,
 Gaussian 16:  ES64L-G16RevA.03 25-Dec-2016

 --------------------------------------------
 #p opt UM062X/6-311+G** nosymm int=superfine
 --------------------------------------------

 -------------------
 Title Card Required
 -------------------
 Symbolic Z-matrix:
 Charge =  0 Multiplicity = 1

 SCF Done:  E(UM062X) =  -379.572807573     A.U. after   15 cycles
 SCF Done:  E(UM062X) =  -379.574201453     A.U. after   10 cycles
 SCF Done:  E(UM062X) =  -379.574207323     A.U. after    8 cycles
 Optimization completed.
    -- Stationary point found.

                          Input orientation:
 ---------------------------------------------------------------------
 Center     Atomic      Atomic             Coordinates (Angstroms)
 Number     Number       Type             X           Y           Z
 ---------------------------------------------------------------------
      1          6           0       -1.790377    0.000000    0.000000
      2         15           0        1.790377    0.000000    0.000000
      3          1           0       -2.912562   -0.000000    0.000000
 ---------------------------------------------------------------------

 Alpha  occ. eigenvalues --  -78.07554 -10.71826  -6.89427  -5.01325  -5.00403
 Alpha  occ. eigenvalues --   -5.00403  -0.76572  -0.60693  -0.42315  -0.24020
 Alpha  occ. eigenvalues --   -0.24020
 Alpha virt. eigenvalues --   -0.15266  -0.15266  -0.11768   0.01135   0.04070
 Alpha virt. eigenvalues --    0.05984   0.05984   0.07665   0.08581   0.08581
 Alpha virt. eigenvalues --    0.13346   0.16649   0.33155   0.33155   0.33715

  Beta  occ. eigenvalues --  -78.07554 -10.71826  -6.89427  -5.01325  -5.00403
  Beta  occ. eigenvalues --   -5.00403  -0.76572  -0.60693  -0.42315  -0.24020
  Beta  occ. eigenvalues --   -0.24020
  Beta virt. eigenvalues --   -0.15266  -0.15266  -0.11768   0.01135   0.04070
  Beta virt. eigenvalues --    0.05984   0.05984   0.07665   0.08581   0.08581
  Beta virt. eigenvalues --    0.13346   0.16649   0.33155   0.33155   0.33715

 Mulliken charges and spin densities:
               1          2
     1  C   -0.122800  -0.000001
     2  P   -0.046540   0.000001
     3  H    0.169340   0.000000
 Sum of Mulliken charges =  -0.00000   0.00000

 Dipole moment (field-independent basis, Debye):
    X=             -2.9146    Y=             -0.0000    Z=              0.0000  Tot=              2.9146
 Quadrupole moment (field-independent basis, Debye-Ang):
   XX=            -10.2806   YY=            -24.1562   ZZ=            -24.1562
   XY=             -0.0000   XZ=              0.0000   YZ=             -0.0000

 Normal termination of Gaussian 16 at Mon Apr 21 19:30:52 2025.
