 Gaussian 16, Revision A.03,
 Gaussian 16:  ES64L-G16RevA.03 25-Dec-2016

 ---------------------------------------------------
 #p UM062X/6-311+G** force int=superfine pop=saveNBO
 ---------------------------------------------------

 -------------------
 Title Card Required
 -------------------
 Symbolic Z-matrix:
 Charge =  0 Multiplicity = 1

                         Standard orientation:
 ---------------------------------------------------------------------
 Center     Atomic      Atomic             Coordinates (Angstroms)
 Number     Number       Type             X           Y           Z
 ---------------------------------------------------------------------
      1          8           0        0.000000    0.000000    1.093562
      2          8           0        0.000000    0.000000   -1.093562
 ---------------------------------------------------------------------

 SCF Done:  E(UM062X) =  -149.934389807     A.U. after   10 cycles

 Unable to determine electronic state:  partially filled degenerate orbitals.
 Alpha  occ. eigenvalues --  -19.84000 -19.83993  -1.13167  -1.08441  -0.50251
 Alpha  occ. eigenvalues --   -0.47800  -0.47611  -0.43447
 Alpha virt. eigenvalues --   -0.28145  -0.22911   0.10297   0.12836   0.15105
 Alpha virt. eigenvalues --    0.15228   0.20442   0.20759   0.21556   0.31875
 Alpha virt. eigenvalues --    0.96074   0.96257   0.97063   1.05592   1.05672

  Beta  occ. eigenvalues --  -19.84000 -19.83993  -1.13167  -1.08441  -0.50251
  Beta  occ. eigenvalues --   -0.47800  -0.47611  -0.43447
  Beta virt. eigenvalues --   -0.28145  -0.22911   0.10297   0.12836   0.15105
  Beta virt. eigenvalues --    0.15228   0.20442   0.20759   0.21556   0.31875
  Beta virt. eigenvalues --    0.96074   0.96257   0.97063   1.05592   1.05672

 Mulliken charges and spin densities:
               1          2
     1  O   -0.000000  -0.000000
     2  O   -0.000000  -0.000000
 Sum of Mulliken charges =  -0.00000  -0.00000

 Dipole moment (field-independent basis, Debye):
    X=             -0.0000    Y=             -0.0000    Z=              0.0000  Tot=              0.0000
 Quadrupole moment (field-independent basis, Debye-Ang):
   XX=            -10.1557   YY=            -11.9024   ZZ=             -9.2755
   XY=              0.0000   XZ=             -0.0000   YZ=              0.0000

 Summary of Natural Population Analysis:

                                       Natural Population
                Natural  -----------------------------------------------
    Atom  No    Charge         Core      Valence    Rydberg      Total
 -----------------------------------------------------------------------
      O    1   -0.00000      1.00000     2.99918    0.00082     4.00000
      O    2   -0.00000      1.00000     2.99918    0.00082     4.00000
 =======================================================================
   * Total *   -0.00000      2.00000     5.99835    0.00165     8.00000

 Normal termination of Gaussian 16 at Mon Apr 21 19:50:49 2025.
