 Gaussian 16, Revision A.03,
 Gaussian 16:  ES64L-G16RevA.03 25-Dec-2016

 --------------------------------------------
 #p opt UM062X/6-311+G** nosymm int=superfine
 --------------------------------------------

 -------------------
 Title Card Required
 -------------------
 Symbolic Z-matrix:
 Charge =  0 Multiplicity = 1

 SCF Done:  E(UM062X) =  -76.4815767158     A.U. after   10 cycles
 SCF Done:  E(UM062X) =  -76.6699161372     A.U. after    9 cycles
 SCF Done:  E(UM062X) =  -76.7566209076     A.U. after   10 cycles
 SCF Done:  E(UM062X) =  -76.7574952441     A.U. after    8 cycles
 SCF Done:  E(UM062X) =  -76.7574983590     A.U. after    7 cycles
 Optimization completed.
    -- Stationary point found.

                          Input orientation:
 ---------------------------------------------------------------------
 Center     Atomic      Atomic             Coordinates (Angstroms)
 Number     Number       Type             X           Y           Z
 ---------------------------------------------------------------------
      1          6           0       -0.418961    0.000000    0.000000
      2          6           0        0.418961    0.000000    0.000000
      3          1           0       -1.475883   -0.000000    0.000000
      4          1           0        1.475882    0.000000   -0.000000
 ---------------------------------------------------------------------

 Alpha  occ. eigenvalues --  -10.49065 -10.43558  -0.88711  -0.58897  -0.55192
 Alpha  occ. eigenvalues --   -0.44990  -0.44990
 Alpha virt. eigenvalues --    0.02948   0.03698   0.06846   0.06846   0.08245
 Alpha virt. eigenvalues --    0.08245   0.09834   0.17083   0.23265   0.25055
 Alpha virt. eigenvalues --    0.25055   0.25209   0.44287   0.49251   0.51740

  Beta  occ. eigenvalues --  -10.49065 -10.43558  -0.88711  -0.58897  -0.55192
  Beta  occ. eigenvalues --   -0.44990  -0.44990
  Beta virt. eigenvalues --    0.02948   0.03698   0.06846   0.06846   0.08245
  Beta virt. eigenvalues --    0.08245   0.09834   0.17083   0.23265   0.25055
  Beta virt. eigenvalues --    0.25055   0.25209   0.44287   0.49251   0.51740

 Mulliken charges and spin densities:
               1          2
     1  C   -0.099792  -0.000000
     2  C   -0.099792   0.000000
     3  H    0.099792   0.000000
     4  H    0.099792   0.000000
 Sum of Mulliken charges =  -0.00000   0.00000

 Dipole moment (field-independent basis, Debye):
    X=             -0.0000    Y=             -0.0000    Z=             -0.0000  Tot=              0.0000
 Quadrupole moment (field-independent basis, Debye-Ang):
   XX=             -7.9191   YY=            -11.8091   ZZ=            -11.8091
   XY=              0.0000   XZ=             -0.0000   YZ=              0.0000

 Normal termination of Gaussian 16 at Tue Dec  3 19:54:48 2024.
