 Gaussian 16, Revision A.03,
 Gaussian 16:  ES64L-G16RevA.03 25-Dec-2016

 --------------------------------------------
 #p opt UM062X/6-311+G** nosymm int=superfine
 --------------------------------------------

 -------------------
 Title Card Required
 -------------------
 Symbolic Z-matrix:
 Charge =  0 Multiplicity = 1

 SCF Done:  E(UM062X) =  -582.448688216     A.U. after    9 cycles
 SCF Done:  E(UM062X) =  -582.449924306     A.U. after    8 cycles
 SCF Done:  E(UM062X) =  -582.450129188     A.U. after    8 cycles
 Optimization completed.
    -- Stationary point found.

                          Input orientation:
 ---------------------------------------------------------------------
 Center     Atomic      Atomic             Coordinates (Angstroms)
 Number     Number       Type             X           Y           Z
 ---------------------------------------------------------------------
      1         14           0       -1.694819    0.000000    0.000000
      2         14           0        1.694819    0.000000    0.000000
      3          1           0        2.137135   -1.408714   -0.000057
      4          1           0       -2.137174   -0.704215    1.220062
      5          1           0        2.137270    0.704387   -1.219928
      6          1           0        2.137180    0.704267    1.220030
      7          1           0       -2.137137    1.408714   -0.000116
      8          1           0       -2.137273   -0.704440   -1.219896
 ---------------------------------------------------------------------

 Alpha  occ. eigenvalues --  -67.01186 -67.01186  -5.56017  -5.56016  -3.87221
 Alpha  occ. eigenvalues --   -3.87219  -3.87060  -3.87060  -3.87060  -3.87060
 Alpha  occ. eigenvalues --   -0.61188  -0.59867  -0.41641  -0.41641  -0.41172
 Alpha  occ. eigenvalues --   -0.41172  -0.26232
 Alpha virt. eigenvalues --   -0.05353   0.02160   0.02929   0.02929   0.03824
 Alpha virt. eigenvalues --    0.04971   0.05445   0.05445   0.06919   0.06920
 Alpha virt. eigenvalues --    0.07634   0.09128   0.09129   0.14474   0.17040

  Beta  occ. eigenvalues --  -67.01186 -67.01186  -5.56017  -5.56016  -3.87221
  Beta  occ. eigenvalues --   -3.87219  -3.87060  -3.87060  -3.87060  -3.87060
  Beta  occ. eigenvalues --   -0.61188  -0.59867  -0.41641  -0.41641  -0.41172
  Beta  occ. eigenvalues --   -0.41172  -0.26232
  Beta virt. eigenvalues --   -0.05353   0.02160   0.02929   0.02929   0.03824
  Beta virt. eigenvalues --    0.04971   0.05445   0.05445   0.06919   0.06920
  Beta virt. eigenvalues --    0.07634   0.09128   0.09129   0.14474   0.17040

 Mulliken charges and spin densities:
               1          2
     1  Si   0.286633  -0.000000
     2  Si   0.286633   0.000000
     3  H   -0.095545  -0.000000
     4  H   -0.095544  -0.000000
     5  H   -0.095544  -0.000000
     6  H   -0.095544  -0.000000
     7  H   -0.095545   0.000000
     8  H   -0.095544  -0.000000
 Sum of Mulliken charges =  -0.00000  -0.00000

 Dipole moment (field-independent basis, Debye):
    X=             -0.0000    Y=              0.0000    Z=             -0.0000  Tot=              0.0000
 Quadrupole moment (field-independent basis, Debye-Ang):
   XX=            -30.1498   YY=            -31.8331   ZZ=            -31.8330
   XY=              0.0002   XZ=              0.0000   YZ=              0.0000

 Normal termination of Gaussian 16 at Mon Apr 21 20:18:56 2025.
