 Gaussian 16, Revision A.03,
 Gaussian 16:  ES64L-G16RevA.03 25-Dec-2016

 --------------------------------------------
 #p opt UM062X/6-311+G** nosymm int=superfine
 --------------------------------------------

 -------------------
 Title Card Required
 -------------------
 Symbolic Z-matrix:
 Charge =  0 Multiplicity = 1

 SCF Done:  E(UM062X) =  -111.849268983     A.U. after   12 cycles
 SCF Done:  E(UM062X) =  -111.849629014     A.U. after   10 cycles
 SCF Done:  E(UM062X) =  -111.849657844     A.U. after    9 cycles
 SCF Done:  E(UM062X) =  -111.849660179     A.U. after    8 cycles
 SCF Done:  E(UM062X) =  -111.849660318     A.U. after    7 cycles
 Optimization completed.
    -- Stationary point found.

                          Input orientation:
 ---------------------------------------------------------------------
 Center     Atomic      Atomic             Coordinates (Angstroms)
 Number     Number       Type             X           Y           Z
 ---------------------------------------------------------------------
      1          7           0       -0.736540    0.000000    0.000000
      2          7           0        0.736540    0.000000    0.000000
      3          1           0       -1.021387   -0.971591    0.010324
      4          1           0        1.021366    0.836198   -0.494843
      5          1           0       -1.100967    0.444258    0.836929
      6          1           0        1.100973    0.053979    0.945993
 ---------------------------------------------------------------------

 Alpha  occ. eigenvalues --  -14.75744 -14.75721  -1.04993  -0.85371  -0.57546
 Alpha  occ. eigenvalues --   -0.56283  -0.51521  -0.33624  -0.32390
 Alpha virt. eigenvalues --    0.04142   0.05637   0.09341   0.10828   0.13975
 Alpha virt. eigenvalues --    0.14244   0.15243   0.17407   0.20215   0.24074
 Alpha virt. eigenvalues --    0.24542   0.26173   0.26343   0.53169   0.57337

  Beta  occ. eigenvalues --  -14.75744 -14.75721  -1.04993  -0.85371  -0.57546
  Beta  occ. eigenvalues --   -0.56283  -0.51521  -0.33624  -0.32390
  Beta virt. eigenvalues --    0.04142   0.05637   0.09341   0.10828   0.13975
  Beta virt. eigenvalues --    0.14244   0.15243   0.17407   0.20215   0.24074
  Beta virt. eigenvalues --    0.24542   0.26173   0.26343   0.53169   0.57337

 Mulliken charges and spin densities:
               1          2
     1  N   -0.509891   0.000000
     2  N   -0.509887   0.000000
     3  H    0.270293  -0.000000
     4  H    0.270292  -0.000000
     5  H    0.239596  -0.000000
     6  H    0.239597  -0.000000
 Sum of Mulliken charges =  -0.00000  -0.00000

 Dipole moment (field-independent basis, Debye):
    X=             -0.0000    Y=              0.5745    Z=              2.0557  Tot=              2.1345
 Quadrupole moment (field-independent basis, Debye-Ang):
   XX=            -13.3978   YY=            -12.7732   ZZ=            -12.8941
   XY=              2.8093   XZ=             -0.7850   YZ=             -0.0366

 Normal termination of Gaussian 16 at Thu May 15 14:21:17 2025.
