 Gaussian 16, Revision A.03,
 Gaussian 16:  ES64L-G16RevA.03 25-Dec-2016

 --------------------------------------------
 #p opt UM062X/6-311+G** nosymm int=superfine
 --------------------------------------------

 -------------------
 Title Card Required
 -------------------
 Symbolic Z-matrix:
 Charge =  0 Multiplicity = 1

 SCF Done:  E(UM062X) =  -438.509444674     A.U. after   12 cycles
 SCF Done:  E(UM062X) =  -438.522414205     A.U. after   11 cycles
 SCF Done:  E(UM062X) =  -438.528030853     A.U. after   11 cycles
 SCF Done:  E(UM062X) =  -438.528087922     A.U. after   10 cycles
 SCF Done:  E(UM062X) =  -438.528107487     A.U. after   11 cycles
 SCF Done:  E(UM062X) =  -438.528121175     A.U. after    9 cycles
 SCF Done:  E(UM062X) =  -438.528123424     A.U. after   11 cycles
 SCF Done:  E(UM062X) =  -438.528124123     A.U. after    8 cycles
 SCF Done:  E(UM062X) =  -438.528124504     A.U. after    8 cycles
 SCF Done:  E(UM062X) =  -438.528124669     A.U. after   12 cycles
 Optimization completed.
    -- Stationary point found.

                          Input orientation:
 ---------------------------------------------------------------------
 Center     Atomic      Atomic             Coordinates (Angstroms)
 Number     Number       Type             X           Y           Z
 ---------------------------------------------------------------------
      1          6           0       -1.710220    0.000000    0.000000
      2         16           0        1.710220    0.000000    0.000000
      3          1           0        1.669035   -1.343851   -0.001572
      4          1           0       -1.736325    1.080519    0.002522
      5          1           0       -1.772985   -0.534613   -0.937401
      6          1           0       -1.773129   -0.538983    0.934885
 ---------------------------------------------------------------------

 Alpha  occ. eigenvalues --  -89.88192 -10.64465  -8.24454  -6.16507  -6.16430
 Alpha  occ. eigenvalues --   -6.15886  -0.82703  -0.75867  -0.54677  -0.54588
 Alpha  occ. eigenvalues --   -0.42403  -0.28346  -0.28336
 Alpha virt. eigenvalues --   -0.14291   0.01312   0.03946   0.04510   0.05598
 Alpha virt. eigenvalues --    0.07553   0.08297   0.08476   0.10920   0.13573
 Alpha virt. eigenvalues --    0.16089   0.16510   0.21616   0.33587   0.36439

  Beta  occ. eigenvalues --  -89.88192 -10.64465  -8.24454  -6.16507  -6.16430
  Beta  occ. eigenvalues --   -6.15886  -0.82703  -0.75867  -0.54677  -0.54588
  Beta  occ. eigenvalues --   -0.42403  -0.28346  -0.28336
  Beta virt. eigenvalues --   -0.14291   0.01312   0.03946   0.04510   0.05598
  Beta virt. eigenvalues --    0.07553   0.08297   0.08476   0.10920   0.13573
  Beta virt. eigenvalues --    0.16089   0.16510   0.21616   0.33587   0.36439

 Mulliken charges and spin densities:
               1          2
     1  C   -0.411771   0.000000
     2  S   -0.270003  -0.000000
     3  H    0.053113  -0.000000
     4  H    0.211154  -0.000000
     5  H    0.208764  -0.000000
     6  H    0.208744   0.000000
 Sum of Mulliken charges =   0.00000   0.00000

 Dipole moment (field-independent basis, Debye):
    X=             -4.2970    Y=             -0.9484    Z=             -0.0011  Tot=              4.4004
 Quadrupole moment (field-independent basis, Debye-Ang):
   XX=            -20.6819   YY=            -19.5534   ZZ=            -23.6056
   XY=             -1.7396   XZ=             -0.0021   YZ=              0.0047

 Normal termination of Gaussian 16 at Mon Apr 21 19:36:45 2025.
