 Gaussian 16, Revision A.03,
 Gaussian 16:  ES64L-G16RevA.03 25-Dec-2016

 --------------------------------------------
 #p opt UM062X/6-311+G** nosymm int=superfine
 --------------------------------------------

 -------------------
 Title Card Required
 -------------------
 Symbolic Z-matrix:
 Charge =  0 Multiplicity = 1

 SCF Done:  E(UM062X) =  -51.8568364943     A.U. after    9 cycles
 SCF Done:  E(UM062X) =  -51.8606429020     A.U. after    8 cycles
 SCF Done:  E(UM062X) =  -51.8624129441     A.U. after   10 cycles
 SCF Done:  E(UM062X) =  -51.8624128906     A.U. after    8 cycles
 SCF Done:  E(UM062X) =  -51.8623926596     A.U. after    9 cycles
 SCF Done:  E(UM062X) =  -51.8624139815     A.U. after    9 cycles
 Optimization completed.
    -- Stationary point found.

                          Input orientation:
 ---------------------------------------------------------------------
 Center     Atomic      Atomic             Coordinates (Angstroms)
 Number     Number       Type             X           Y           Z
 ---------------------------------------------------------------------
      1          5           0       -1.545607    0.000000    0.000000
      2          5           0        1.545607    0.000000    0.000000
      3          1           0       -2.047646   -1.069016   -0.001158
      4          1           0        2.047646    1.068994   -0.006868
      5          1           0       -2.047647    1.069015    0.000968
      6          1           0        2.047647   -1.068995    0.006623
 ---------------------------------------------------------------------

 Alpha  occ. eigenvalues --   -7.10430  -7.10428  -0.57542  -0.56510  -0.44027
 Alpha  occ. eigenvalues --   -0.43556  -0.23522
 Alpha virt. eigenvalues --   -0.05424  -0.02560  -0.02065   0.02311   0.03887
 Alpha virt. eigenvalues --    0.03930   0.05786   0.06261   0.07612   0.07698
 Alpha virt. eigenvalues --    0.10459   0.15848   0.17276   0.17374   0.25662

  Beta  occ. eigenvalues --   -7.10430  -7.10428  -0.57542  -0.56510  -0.44027
  Beta  occ. eigenvalues --   -0.43556  -0.23522
  Beta virt. eigenvalues --   -0.05424  -0.02560  -0.02065   0.02311   0.03887
  Beta virt. eigenvalues --    0.03930   0.05786   0.06261   0.07612   0.07698
  Beta virt. eigenvalues --    0.10459   0.15848   0.17276   0.17374   0.25662

 Mulliken charges and spin densities:
               1          2
     1  B   -0.048435   0.000000
     2  B   -0.048435  -0.000000
     3  H    0.024218  -0.000000
     4  H    0.024218  -0.000000
     5  H    0.024218   0.000000
     6  H    0.024218   0.000000
 Sum of Mulliken charges =  -0.00000  -0.00000

 Dipole moment (field-independent basis, Debye):
    X=              0.0000    Y=             -0.0000    Z=             -0.0000  Tot=              0.0000
 Quadrupole moment (field-independent basis, Debye-Ang):
   XX=            -14.0212   YY=            -16.8881   ZZ=            -14.0383
   XY=              0.0000   XZ=              0.0001   YZ=              0.0076

 Normal termination of Gaussian 16 at Mon Apr 21 17:15:49 2025.
