 Gaussian 16, Revision A.03,
 Gaussian 16:  ES64L-G16RevA.03 25-Dec-2016

 ---------------------------------------
 #p UM062X/6-311+G** force int=superfine
 ---------------------------------------

 -------------------
 Title Card Required
 -------------------
 Symbolic Z-matrix:
 Charge =  1 Multiplicity = 2

                         Standard orientation:
 ---------------------------------------------------------------------
 Center     Atomic      Atomic             Coordinates (Angstroms)
 Number     Number       Type             X           Y           Z
 ---------------------------------------------------------------------
      1          6           0        0.284309    0.648894   -1.744871
      2          6           0       -0.284313   -0.648888    1.744872
      3          1           0       -1.134694   -1.237306    1.420518
      4          1           0        0.434938   -0.354840   -2.124892
      5          1           0       -0.434856    0.354520    2.125788
      6          1           0        0.703146   -1.094758    1.771352
      7          1           0        1.134573    1.237486   -1.420524
      8          1           0       -0.703080    1.094866   -1.772245
 ---------------------------------------------------------------------

 SCF Done:  E(UM062X) =  -79.3209603067     A.U. after   10 cycles

 The electronic state is 2-A.
 Alpha  occ. eigenvalues --  -10.83880 -10.83879  -1.02436  -1.01987  -0.73442
 Alpha  occ. eigenvalues --   -0.73441  -0.73273  -0.73272  -0.48369
 Alpha virt. eigenvalues --   -0.37369  -0.12966  -0.10196  -0.09632  -0.09632
 Alpha virt. eigenvalues --   -0.06233  -0.06233  -0.04424  -0.03071  -0.00437
 Alpha virt. eigenvalues --   -0.00434   0.01312   0.01314   0.03035   0.08451

  Beta  occ. eigenvalues --  -10.83665 -10.83665  -0.99773  -0.99480  -0.72929
  Beta  occ. eigenvalues --   -0.72928  -0.72740  -0.72739
  Beta virt. eigenvalues --   -0.32728  -0.26576  -0.16211  -0.11030  -0.11029
  Beta virt. eigenvalues --   -0.10194  -0.06251  -0.06250  -0.05048  -0.02130
  Beta virt. eigenvalues --   -0.00740  -0.00737   0.01584   0.01586   0.02907

 Mulliken charges and spin densities:
               1          2
     1  C   -0.256507   0.557929
     2  C   -0.256508   0.557929
     3  H    0.252191  -0.019304
     4  H    0.252147  -0.019313
     5  H    0.252169  -0.019313
     6  H    0.252148  -0.019311
     7  H    0.252192  -0.019304
     8  H    0.252168  -0.019312
 Sum of Mulliken charges =   1.00000   1.00000

 Dipole moment (field-independent basis, Debye):
    X=              0.0000    Y=             -0.0001    Z=             -0.0000  Tot=              0.0001
 Quadrupole moment (field-independent basis, Debye-Ang):
   XX=            -10.7197   YY=             -9.0980   ZZ=              3.4019
   XY=              0.8799   XZ=             -2.3652   YZ=             -5.3962

 Normal termination of Gaussian 16 at Wed Nov 13 13:05:34 2024.
