 Gaussian 16, Revision A.03,
 Gaussian 16:  ES64L-G16RevA.03 25-Dec-2016

 ---------------------------------------
 #p UM062X/6-311+G** force int=superfine
 ---------------------------------------

 -------------------
 Title Card Required
 -------------------
 Symbolic Z-matrix:
 Charge =  0 Multiplicity = 1

                         Standard orientation:
 ---------------------------------------------------------------------
 Center     Atomic      Atomic             Coordinates (Angstroms)
 Number     Number       Type             X           Y           Z
 ---------------------------------------------------------------------
      1          6           0       -0.000000    1.047338    0.000000
      2          6           0       -0.000000   -1.047338    0.000000
      3          1           0        0.977274    1.502173    0.000000
      4          1           0       -0.977217    1.502121    0.000000
      5          1           0       -0.977274   -1.502173   -0.000000
      6          1           0        0.977217   -1.502121    0.000000
 ---------------------------------------------------------------------

 SCF Done:  E(UM062X) =  -78.3502415674     A.U. after    8 cycles

 The electronic state is 1-AG.
 Alpha  occ. eigenvalues --  -10.61466 -10.61454  -0.77125  -0.71888  -0.53051
 Alpha  occ. eigenvalues --   -0.50364  -0.36815  -0.25662
 Alpha virt. eigenvalues --   -0.07295   0.00789   0.03363   0.05381   0.07265
 Alpha virt. eigenvalues --    0.08004   0.09187   0.09928   0.11340   0.15200
 Alpha virt. eigenvalues --    0.16408   0.20303   0.21335   0.27946   0.39487

  Beta  occ. eigenvalues --  -10.61466 -10.61454  -0.77125  -0.71888  -0.53051
  Beta  occ. eigenvalues --   -0.50364  -0.36815  -0.25662
  Beta virt. eigenvalues --   -0.07295   0.00789   0.03363   0.05381   0.07265
  Beta virt. eigenvalues --    0.08004   0.09187   0.09928   0.11340   0.15200
  Beta virt. eigenvalues --    0.16408   0.20303   0.21335   0.27946   0.39487

 Mulliken charges and spin densities:
               1          2
     1  C   -0.365040  -0.000000
     2  C   -0.365040  -0.000000
     3  H    0.182522   0.000000
     4  H    0.182519  -0.000000
     5  H    0.182522   0.000000
     6  H    0.182519  -0.000000
 Sum of Mulliken charges =   0.00000   0.00000

 Dipole moment (field-independent basis, Debye):
    X=             -0.0000    Y=             -0.0000    Z=             -0.0000  Tot=              0.0000
 Quadrupole moment (field-independent basis, Debye-Ang):
   XX=            -12.0564   YY=            -11.0837   ZZ=            -18.3326
   XY=              0.0002   XZ=             -0.0000   YZ=              0.0000

 Normal termination of Gaussian 16 at Tue Nov 19 11:50:21 2024.
