 Gaussian 16, Revision A.03,
 Gaussian 16:  ES64L-G16RevA.03 25-Dec-2016

 ----------------------------------------------------------------------
 #p opt UM062X/6-311+G** nosymm int=superfine SCF=(MaxCycle=200,NoVarAc
 c,noincfock) guess=read
 ----------------------------------------------------------------------

 -------------------
 Title Card Required
 -------------------
 Symbolic Z-matrix:
 Charge =  0 Multiplicity = 1

 SCF Done:  E(UM062X) =  -151.295790911     A.U. after   22 cycles
 SCF Done:  E(UM062X) =  -151.296108934     A.U. after   24 cycles
 SCF Done:  E(UM062X) =  -151.296352034     A.U. after   59 cycles
 SCF Done:  E(UM062X) =  -151.296666329     A.U. after   29 cycles
 SCF Done:  E(UM062X) =  -151.296893835     A.U. after   20 cycles
 SCF Done:  E(UM062X) =  -151.297102932     A.U. after   22 cycles
 SCF Done:  E(UM062X) =  -151.297249747     A.U. after   22 cycles
 SCF Done:  E(UM062X) =  -151.297327396     A.U. after   19 cycles
 SCF Done:  E(UM062X) =  -151.297373363     A.U. after   31 cycles
 SCF Done:  E(UM062X) =  -151.297392713     A.U. after   21 cycles
 SCF Done:  E(UM062X) =  -151.297395752     A.U. after   17 cycles
 SCF Done:  E(UM062X) =  -151.297395912     A.U. after   20 cycles
 SCF Done:  E(UM062X) =  -151.297395928     A.U. after   18 cycles
 Optimization completed.
    -- Stationary point found.

                          Input orientation:
 ---------------------------------------------------------------------
 Center     Atomic      Atomic             Coordinates (Angstroms)
 Number     Number       Type             X           Y           Z
 ---------------------------------------------------------------------
      1          8           0       -2.136938    0.000000    0.000000
      2          8           0        2.136938    0.000000    0.000000
      3          1           0       -1.947837   -0.756354   -0.583061
      4          1           0        1.948392    0.756401    0.583179
 ---------------------------------------------------------------------

 Alpha  occ. eigenvalues --  -19.72132 -19.72131  -1.12804  -1.12702  -0.56584
 Alpha  occ. eigenvalues --   -0.56552  -0.43997  -0.43950  -0.35254
 Alpha virt. eigenvalues --   -0.27892   0.05257   0.07145   0.15435   0.15521
 Alpha virt. eigenvalues --    0.15711   0.17859   0.18986   0.19754   0.19979
 Alpha virt. eigenvalues --    0.29427   0.49552   0.50107   0.99703   1.00977

  Beta  occ. eigenvalues --  -19.72132 -19.72131  -1.12804  -1.12702  -0.56584
  Beta  occ. eigenvalues --   -0.56552  -0.43997  -0.43950  -0.35254
  Beta virt. eigenvalues --   -0.27892   0.05257   0.07145   0.15435   0.15521
  Beta virt. eigenvalues --    0.15711   0.17859   0.18986   0.19754   0.19979
  Beta virt. eigenvalues --    0.29427   0.49552   0.50107   0.99703   1.00977

 Mulliken charges and spin densities:
               1          2
     1  O   -0.265369  -0.000000
     2  O   -0.265394   0.000000
     3  H    0.265384  -0.000000
     4  H    0.265379   0.000000
 Sum of Mulliken charges =  -0.00000  -0.00000

 Dipole moment (field-independent basis, Debye):
    X=              0.0008    Y=              0.0000    Z=              0.0002  Tot=              0.0008
 Quadrupole moment (field-independent basis, Debye-Ang):
   XX=            -14.0346   YY=            -10.6025   ZZ=            -11.8831
   XY=              5.9267   XZ=              4.5690   YZ=              2.4338

 Normal termination of Gaussian 16 at Tue Apr 22 00:26:40 2025.
