 Gaussian 16, Revision A.03,
 Gaussian 16:  ES64L-G16RevA.03 25-Dec-2016

 --------------------------------------------
 #p opt UM062X/6-311+G** nosymm int=superfine
 --------------------------------------------

 -------------------
 Title Card Required
 -------------------
 Symbolic Z-matrix:
 Charge =  0 Multiplicity = 1

 SCF Done:  E(UM062X) =  -114.097292461     A.U. after   14 cycles
 SCF Done:  E(UM062X) =  -114.098846666     A.U. after   10 cycles
 SCF Done:  E(UM062X) =  -114.099320159     A.U. after    9 cycles
 SCF Done:  E(UM062X) =  -114.099325653     A.U. after    8 cycles
 Optimization completed.
    -- Stationary point found.

                          Input orientation:
 ---------------------------------------------------------------------
 Center     Atomic      Atomic             Coordinates (Angstroms)
 Number     Number       Type             X           Y           Z
 ---------------------------------------------------------------------
      1          6           0       -1.548311    0.000000    0.000000
      2          8           0        1.548311    0.000000    0.000000
      3          1           0       -2.208512   -0.882841   -0.000005
      4          1           0       -2.208517    0.882838   -0.000005
 ---------------------------------------------------------------------

 Alpha  occ. eigenvalues --  -19.71560 -10.65078  -1.01598  -0.78763  -0.51641
 Alpha  occ. eigenvalues --   -0.40438  -0.40428  -0.34293
 Alpha virt. eigenvalues --   -0.14967  -0.11022   0.01245   0.05656   0.07478
 Alpha virt. eigenvalues --    0.07981   0.15562   0.17289   0.18062   0.20909
 Alpha virt. eigenvalues --    0.23496   0.28176   0.42717   0.45622   0.56350

  Beta  occ. eigenvalues --  -19.71560 -10.65078  -1.01598  -0.78763  -0.51641
  Beta  occ. eigenvalues --   -0.40438  -0.40428  -0.34293
  Beta virt. eigenvalues --   -0.14967  -0.11022   0.01245   0.05656   0.07478
  Beta virt. eigenvalues --    0.07981   0.15562   0.17289   0.18062   0.20909
  Beta virt. eigenvalues --    0.23496   0.28176   0.42717   0.45622   0.56350

 Mulliken charges and spin densities:
               1          2
     1  C   -0.241937   0.000000
     2  O   -0.075886  -0.000000
     3  H    0.158912   0.000000
     4  H    0.158912  -0.000000
 Sum of Mulliken charges =  -0.00000   0.00000

 Dipole moment (field-independent basis, Debye):
    X=             -3.6342    Y=             -0.0000    Z=             -0.0000  Tot=              3.6342
 Quadrupole moment (field-independent basis, Debye-Ang):
   XX=             -6.2840   YY=            -12.8991   ZZ=            -12.5064
   XY=              0.0000   XZ=              0.0000   YZ=             -0.0000

 Normal termination of Gaussian 16 at Mon Apr 21 18:50:01 2025.
