 Gaussian 16, Revision A.03,
 Gaussian 16:  ES64L-G16RevA.03 25-Dec-2016

 --------------------------------------------
 #p opt UM062X/6-311+G** nosymm int=superfine
 --------------------------------------------

 -------------------
 Title Card Required
 -------------------
 Symbolic Z-matrix:
 Charge =  0 Multiplicity = 1

 SCF Done:  E(UM062X) =  -683.575167442     A.U. after   11 cycles
 SCF Done:  E(UM062X) =  -683.575343695     A.U. after   10 cycles
 SCF Done:  E(UM062X) =  -683.575726452     A.U. after   14 cycles
 SCF Done:  E(UM062X) =  -683.575867951     A.U. after   17 cycles
 SCF Done:  E(UM062X) =  -683.575877340     A.U. after   13 cycles
 Optimization completed.
    -- Stationary point found.

                          Input orientation:
 ---------------------------------------------------------------------
 Center     Atomic      Atomic             Coordinates (Angstroms)
 Number     Number       Type             X           Y           Z
 ---------------------------------------------------------------------
      1         15           0       -2.334490    0.000000    0.000000
      2         15           0        2.334490    0.000000    0.000000
      3          1           0       -2.172240   -1.415111    0.000000
      4          1           0        2.172240    1.415111    0.000000
 ---------------------------------------------------------------------

 Alpha  occ. eigenvalues --  -78.08221 -78.08221  -6.90296  -6.90295  -5.01701
 Alpha  occ. eigenvalues --   -5.01701  -5.01685  -5.01685  -5.01512  -5.01512
 Alpha  occ. eigenvalues --   -0.68529  -0.68160  -0.40541  -0.40482  -0.24649
 Alpha  occ. eigenvalues --   -0.23679
 Alpha virt. eigenvalues --   -0.17434  -0.16339   0.01849   0.03027   0.03716
 Alpha virt. eigenvalues --    0.04416   0.05530   0.06039   0.06359   0.07369
 Alpha virt. eigenvalues --    0.08124   0.11281   0.28811   0.28831   0.30780

  Beta  occ. eigenvalues --  -78.08221 -78.08221  -6.90296  -6.90295  -5.01701
  Beta  occ. eigenvalues --   -5.01701  -5.01685  -5.01685  -5.01512  -5.01512
  Beta  occ. eigenvalues --   -0.68529  -0.68160  -0.40541  -0.40482  -0.24649
  Beta  occ. eigenvalues --   -0.23679
  Beta virt. eigenvalues --   -0.17434  -0.16339   0.01849   0.03027   0.03716
  Beta virt. eigenvalues --    0.04416   0.05530   0.06039   0.06359   0.07369
  Beta virt. eigenvalues --    0.08124   0.11281   0.28811   0.28831   0.30780

 Mulliken charges and spin densities:
               1          2
     1  P    0.012761   0.000000
     2  P    0.012761  -0.000000
     3  H   -0.012761  -0.000000
     4  H   -0.012761   0.000000
 Sum of Mulliken charges =  -0.00000   0.00000

 Dipole moment (field-independent basis, Debye):
    X=              0.0000    Y=             -0.0000    Z=              0.0000  Tot=              0.0000
 Quadrupole moment (field-independent basis, Debye-Ang):
   XX=            -27.4061   YY=            -28.5176   ZZ=            -30.7393
   XY=              3.4924   XZ=             -0.0000   YZ=             -0.0000

 Normal termination of Gaussian 16 at Mon Apr 21 21:13:51 2025.
