 Gaussian 16, Revision A.03,
 Gaussian 16:  ES64L-G16RevA.03 25-Dec-2016

 --------------------------------------------
 #p opt UM062X/6-311+G** nosymm int=superfine
 --------------------------------------------

 -------------------
 Title Card Required
 -------------------
 Symbolic Z-matrix:
 Charge =  0 Multiplicity = 1

 SCF Done:  E(UM062X) =  -379.664418133     A.U. after   13 cycles
 SCF Done:  E(UM062X) =  -379.665173385     A.U. after   10 cycles
 SCF Done:  E(UM062X) =  -379.665174327     A.U. after    9 cycles
 Optimization completed.
    -- Stationary point found.

                          Input orientation:
 ---------------------------------------------------------------------
 Center     Atomic      Atomic             Coordinates (Angstroms)
 Number     Number       Type             X           Y           Z
 ---------------------------------------------------------------------
      1          6           0       -1.315377    0.000000    0.000000
      2         15           0        1.315377    0.000000    0.000000
      3          1           0       -2.423894   -0.000000    0.000000
 ---------------------------------------------------------------------

 Alpha  occ. eigenvalues --  -78.10436 -10.69870  -6.91981  -5.03645  -5.03073
 Alpha  occ. eigenvalues --   -5.03073  -0.74936  -0.62827  -0.41631  -0.26487
 Alpha  occ. eigenvalues --   -0.26487
 Alpha virt. eigenvalues --   -0.12598  -0.12598  -0.09667   0.01538   0.03970
 Alpha virt. eigenvalues --    0.05685   0.05685   0.07351   0.09575   0.09575
 Alpha virt. eigenvalues --    0.15154   0.19738   0.30618   0.32740   0.32740

  Beta  occ. eigenvalues --  -78.10436 -10.69870  -6.91981  -5.03645  -5.03073
  Beta  occ. eigenvalues --   -5.03073  -0.74936  -0.62827  -0.41631  -0.26487
  Beta  occ. eigenvalues --   -0.26487
  Beta virt. eigenvalues --   -0.12598  -0.12598  -0.09667   0.01538   0.03970
  Beta virt. eigenvalues --    0.05685   0.05685   0.07351   0.09575   0.09575
  Beta virt. eigenvalues --    0.15154   0.19738   0.30618   0.32740   0.32740

 Mulliken charges and spin densities:
               1          2
     1  C   -0.307910  -0.000000
     2  P    0.097371   0.000000
     3  H    0.210539   0.000000
 Sum of Mulliken charges =  -0.00000  -0.00000

 Dipole moment (field-independent basis, Debye):
    X=             -1.0448    Y=              0.0000    Z=             -0.0000  Tot=              1.0448
 Quadrupole moment (field-independent basis, Debye-Ang):
   XX=            -11.6414   YY=            -23.4544   ZZ=            -23.4544
   XY=             -0.0000   XZ=             -0.0000   YZ=             -0.0000

 Normal termination of Gaussian 16 at Mon Apr 21 19:24:22 2025.
