 Gaussian 16, Revision A.03,
 Gaussian 16:  ES64L-G16RevA.03 25-Dec-2016

 --------------------------------------------
 #p opt UM062X/6-311+G** nosymm int=superfine
 --------------------------------------------

 -------------------
 Title Card Required
 -------------------
 Symbolic Z-matrix:
 Charge =  0 Multiplicity = 1

 SCF Done:  E(UM062X) =  -151.297367686     A.U. after   25 cycles
 SCF Done:  E(UM062X) =  -151.297713374     A.U. after   19 cycles
 SCF Done:  E(UM062X) =  -151.298011592     A.U. after   22 cycles
 SCF Done:  E(UM062X) =  -151.298373323     A.U. after   22 cycles
 SCF Done:  E(UM062X) =  -151.298622571     A.U. after   35 cycles
 SCF Done:  E(UM062X) =  -151.298880723     A.U. after   22 cycles
 SCF Done:  E(UM062X) =  -151.299010049     A.U. after   22 cycles
 SCF Done:  E(UM062X) =  -151.299074051     A.U. after   26 cycles
 SCF Done:  E(UM062X) =  -151.299115091     A.U. after   77 cycles
 SCF Done:  E(UM062X) =  -151.299126739     A.U. after   18 cycles
 SCF Done:  E(UM062X) =  -151.299128385     A.U. after   22 cycles
 SCF Done:  E(UM062X) =  -151.299128467     A.U. after   14 cycles
 SCF Done:  E(UM062X) =  -151.299128473     A.U. after   21 cycles
 Optimization completed.
    -- Stationary point found.

                          Input orientation:
 ---------------------------------------------------------------------
 Center     Atomic      Atomic             Coordinates (Angstroms)
 Number     Number       Type             X           Y           Z
 ---------------------------------------------------------------------
      1          8           0       -2.086938    0.000000    0.000000
      2          8           0        2.086938    0.000000    0.000000
      3          1           0       -1.897435   -0.756798   -0.582456
      4          1           0        1.897945    0.756812    0.582602
 ---------------------------------------------------------------------

 Alpha  occ. eigenvalues --  -19.72183 -19.72182  -1.12837  -1.12724  -0.56615
 Alpha  occ. eigenvalues --   -0.56575  -0.44032  -0.43974  -0.35406
 Alpha virt. eigenvalues --   -0.27786   0.05203   0.07199   0.15360   0.15441
 Alpha virt. eigenvalues --    0.15952   0.17933   0.19125   0.19775   0.20073
 Alpha virt. eigenvalues --    0.29777   0.49471   0.50271   0.99679   1.00978

  Beta  occ. eigenvalues --  -19.72183 -19.72182  -1.12837  -1.12724  -0.56615
  Beta  occ. eigenvalues --   -0.56575  -0.44032  -0.43974  -0.35406
  Beta virt. eigenvalues --   -0.27786   0.05203   0.07199   0.15360   0.15441
  Beta virt. eigenvalues --    0.15952   0.17933   0.19125   0.19775   0.20073
  Beta virt. eigenvalues --    0.29777   0.49471   0.50271   0.99679   1.00978

 Mulliken charges and spin densities:
               1          2
     1  O   -0.265750  -0.000000
     2  O   -0.265775   0.000000
     3  H    0.265765  -0.000000
     4  H    0.265760   0.000000
 Sum of Mulliken charges =  -0.00000  -0.00000

 Dipole moment (field-independent basis, Debye):
    X=              0.0007    Y=             -0.0000    Z=              0.0003  Tot=              0.0008
 Quadrupole moment (field-independent basis, Debye-Ang):
   XX=            -13.9194   YY=            -10.5999   ZZ=            -11.8888
   XY=              5.7888   XZ=              4.4556   YZ=              2.4343

 Normal termination of Gaussian 16 at Mon Apr 21 21:35:13 2025.
