 Gaussian 16, Revision A.03,
 Gaussian 16:  ES64L-G16RevA.03 25-Dec-2016

 --------------------------------------------
 #p opt UM062X/6-311+G** nosymm int=superfine
 --------------------------------------------

 -------------------
 Title Card Required
 -------------------
 Symbolic Z-matrix:
 Charge =  0 Multiplicity = 1

 SCF Done:  E(UM062X) =  -81.9200611658     A.U. after   11 cycles
 SCF Done:  E(UM062X) =  -81.9222051326     A.U. after    9 cycles
 SCF Done:  E(UM062X) =  -81.9228058507     A.U. after   10 cycles
 SCF Done:  E(UM062X) =  -81.9119743748     A.U. after   11 cycles
 SCF Done:  E(UM062X) =  -81.9229557470     A.U. after   10 cycles
 SCF Done:  E(UM062X) =  -81.9236464966     A.U. after   11 cycles
 SCF Done:  E(UM062X) =  -81.9211708731     A.U. after   12 cycles
 SCF Done:  E(UM062X) =  -81.9221663096     A.U. after   10 cycles
 SCF Done:  E(UM062X) =  -81.9241561906     A.U. after    8 cycles
 SCF Done:  E(UM062X) =  -81.9254037137     A.U. after   12 cycles
 SCF Done:  E(UM062X) =  -81.9264823145     A.U. after   10 cycles
 SCF Done:  E(UM062X) =  -81.9267897936     A.U. after   10 cycles
 SCF Done:  E(UM062X) =  -81.9267329749     A.U. after   10 cycles
 SCF Done:  E(UM062X) =  -81.9268525648     A.U. after    8 cycles
 SCF Done:  E(UM062X) =  -81.9268543179     A.U. after    8 cycles
 SCF Done:  E(UM062X) =  -81.9268543382     A.U. after    7 cycles
 SCF Done:  E(UM062X) =  -81.9268543563     A.U. after    6 cycles
 Optimization completed.
    -- Stationary point found.

                          Input orientation:
 ---------------------------------------------------------------------
 Center     Atomic      Atomic             Coordinates (Angstroms)
 Number     Number       Type             X           Y           Z
 ---------------------------------------------------------------------
      1          5           0       -0.970399    0.000000    0.000000
      2          7           0        0.970399    0.000000    0.000000
      3          1           0       -1.454907   -1.073309   -0.041898
      4          1           0        1.290488    0.829620    0.487967
      5          1           0       -1.454897    1.073337   -0.041290
      6          1           0        1.290473   -0.829408    0.488336
 ---------------------------------------------------------------------

 Alpha  occ. eigenvalues --  -14.73073  -7.11621  -0.90610  -0.58582  -0.52794
 Alpha  occ. eigenvalues --   -0.44502  -0.39780  -0.31436
 Alpha virt. eigenvalues --   -0.03433   0.01306   0.02305   0.03518   0.05819
 Alpha virt. eigenvalues --    0.10927   0.13197   0.13578   0.15712   0.16334
 Alpha virt. eigenvalues --    0.20146   0.20606   0.22674   0.26374   0.35601

  Beta  occ. eigenvalues --  -14.73073  -7.11621  -0.90610  -0.58582  -0.52794
  Beta  occ. eigenvalues --   -0.44502  -0.39780  -0.31436
  Beta virt. eigenvalues --   -0.03433   0.01306   0.02305   0.03518   0.05819
  Beta virt. eigenvalues --    0.10927   0.13197   0.13578   0.15712   0.16334
  Beta virt. eigenvalues --    0.20146   0.20606   0.22674   0.26374   0.35601

 Mulliken charges and spin densities:
               1          2
     1  B    0.190221  -0.000000
     2  N   -0.724524   0.000000
     3  H    0.024377   0.000000
     4  H    0.242768  -0.000000
     5  H    0.024380   0.000000
     6  H    0.242778  -0.000000
 Sum of Mulliken charges =  -0.00000  -0.00000

 Dipole moment (field-independent basis, Debye):
    X=             -1.1491    Y=              0.0003    Z=              1.3631  Tot=              1.7828
 Quadrupole moment (field-independent basis, Debye-Ang):
   XX=            -14.2564   YY=            -13.1924   ZZ=            -14.8326
   XY=              0.0006   XZ=              2.1432   YZ=             -0.0009

 Normal termination of Gaussian 16 at Mon Apr 21 17:44:36 2025.
