 Gaussian 16, Revision A.03,
 Gaussian 16:  ES64L-G16RevA.03 25-Dec-2016

 --------------------------------------------
 #p opt UM062X/6-311+G** nosymm int=superfine
 --------------------------------------------

 -------------------
 Title Card Required
 -------------------
 Symbolic Z-matrix:
 Charge =  0 Multiplicity = 1

 SCF Done:  E(UM062X) =  -80.4251561766     A.U. after   18 cycles
 SCF Done:  E(UM062X) =  -80.4279607183     A.U. after   11 cycles
 SCF Done:  E(UM062X) =  -80.4294023464     A.U. after   11 cycles
 SCF Done:  E(UM062X) =  -80.4310514637     A.U. after   11 cycles
 SCF Done:  E(UM062X) =  -80.4319388419     A.U. after   11 cycles
 SCF Done:  E(UM062X) =  -80.4325977957     A.U. after   11 cycles
 SCF Done:  E(UM062X) =  -80.4331475112     A.U. after   13 cycles
 SCF Done:  E(UM062X) =  -80.4257993444     A.U. after   17 cycles
 SCF Done:  E(UM062X) =  -80.4335033294     A.U. after   16 cycles
 SCF Done:  E(UM062X) =  -80.4337667306     A.U. after   14 cycles
 SCF Done:  E(UM062X) =  -80.4337333761     A.U. after   17 cycles
 SCF Done:  E(UM062X) =  -80.4338333534     A.U. after   15 cycles
 SCF Done:  E(UM062X) =  -80.4339109059     A.U. after   16 cycles
 SCF Done:  E(UM062X) =  -80.4339134916     A.U. after   12 cycles
 SCF Done:  E(UM062X) =  -80.4339143119     A.U. after   14 cycles
 SCF Done:  E(UM062X) =  -80.4339146784     A.U. after   13 cycles
 Optimization completed.
    -- Stationary point found.

                          Input orientation:
 ---------------------------------------------------------------------
 Center     Atomic      Atomic             Coordinates (Angstroms)
 Number     Number       Type             X           Y           Z
 ---------------------------------------------------------------------
      1          5           0       -1.517628   -0.001182    0.000000
      2          7           0        1.516807    0.000550    0.000000
      3          1           0       -2.689525   -0.332491   -0.007789
      4          1           0        1.360336    1.024311    0.025163
 ---------------------------------------------------------------------

 Alpha  occ. eigenvalues --  -14.79201  -7.17037  -0.85758  -0.58313  -0.42641
 Alpha  occ. eigenvalues --   -0.31586  -0.30005
 Alpha virt. eigenvalues --   -0.09076  -0.06904  -0.06512   0.01209   0.04237
 Alpha virt. eigenvalues --    0.05402   0.05437   0.11629   0.15330   0.16815
 Alpha virt. eigenvalues --    0.17772   0.20946   0.25139   0.35523   0.39630

  Beta  occ. eigenvalues --  -14.79201  -7.17037  -0.85758  -0.58313  -0.42641
  Beta  occ. eigenvalues --   -0.31586  -0.30005
  Beta virt. eigenvalues --   -0.09076  -0.06904  -0.06512   0.01209   0.04237
  Beta virt. eigenvalues --    0.05402   0.05437   0.11629   0.15330   0.16815
  Beta virt. eigenvalues --    0.17772   0.20946   0.25139   0.35523   0.39630

 Mulliken charges and spin densities:
               1          2
     1  B    0.044865   0.000000
     2  N   -0.259547  -0.000000
     3  H    0.027741   0.000000
     4  H    0.186940   0.000000
 Sum of Mulliken charges =  -0.00000  -0.00000

 Dipole moment (field-independent basis, Debye):
    X=             -3.5072    Y=              1.1236    Z=              0.0280  Tot=              3.6829
 Quadrupole moment (field-independent basis, Debye-Ang):
   XX=             -9.8794   YY=            -12.5561   ZZ=            -15.1455
   XY=              2.7373   XZ=              0.0672   YZ=              0.0638

 Normal termination of Gaussian 16 at Mon Apr 21 21:08:19 2025.
