 Gaussian 16, Revision A.03,
 Gaussian 16:  ES64L-G16RevA.03 25-Dec-2016

 --------------------------------------------
 #p opt UM062X/6-311+G** nosymm int=superfine
 --------------------------------------------

 -------------------
 Title Card Required
 -------------------
 Symbolic Z-matrix:
 Charge =  1 Multiplicity = 2

 SCF Done:  E(UM062X) =  -580.870909204     A.U. after   14 cycles
 SCF Done:  E(UM062X) =  -580.878049703     A.U. after    9 cycles
 SCF Done:  E(UM062X) =  -580.880036447     A.U. after   12 cycles
 SCF Done:  E(UM062X) =  -580.880038985     A.U. after   10 cycles
 Optimization completed.
    -- Stationary point found.

                          Input orientation:
 ---------------------------------------------------------------------
 Center     Atomic      Atomic             Coordinates (Angstroms)
 Number     Number       Type             X           Y           Z
 ---------------------------------------------------------------------
      1         14           0       -2.091295    0.000000    0.000000
      2         14           0        2.091295    0.000000    0.000000
      3          1           0       -2.986399   -1.191217    0.000055
      4          1           0        2.986399    1.191217    0.001086
      5          1           0       -2.986413    1.191206   -0.000059
      6          1           0        2.986413   -1.191206   -0.001090
 ---------------------------------------------------------------------

 Alpha  occ. eigenvalues --  -67.24378 -67.24378  -5.78863  -5.78862  -4.10136
 Alpha  occ. eigenvalues --   -4.10136  -4.09810  -4.09810  -4.09470  -4.09469
 Alpha  occ. eigenvalues --   -0.78450  -0.78227  -0.60205  -0.60146  -0.50367
 Alpha  occ. eigenvalues --   -0.46973
 Alpha virt. eigenvalues --   -0.27469  -0.26559  -0.13107  -0.12061  -0.09279
 Alpha virt. eigenvalues --   -0.07984  -0.07913  -0.07430  -0.06771  -0.06116
 Alpha virt. eigenvalues --   -0.06033  -0.05814  -0.05585  -0.03435   0.13366

  Beta  occ. eigenvalues --  -67.24031 -67.24031  -5.78595  -5.78594  -4.10031
  Beta  occ. eigenvalues --   -4.10031  -4.09356  -4.09356  -4.09025  -4.09025
  Beta  occ. eigenvalues --   -0.76629  -0.76249  -0.59028  -0.58952  -0.44287
  Beta virt. eigenvalues --   -0.32258  -0.26284  -0.25184  -0.12074  -0.11572
  Beta virt. eigenvalues --   -0.09366  -0.07504  -0.07184  -0.06570  -0.06426
  Beta virt. eigenvalues --   -0.05883  -0.05483  -0.05424  -0.05338  -0.03027

 Mulliken charges and spin densities:
               1          2
     1  Si   0.557251   0.386372
     2  Si   0.557251   0.386372
     3  H   -0.028626   0.056814
     4  H   -0.028626   0.056814
     5  H   -0.028626   0.056814
     6  H   -0.028626   0.056814
 Sum of Mulliken charges =   1.00000   1.00000

 Dipole moment (field-independent basis, Debye):
    X=              0.0000    Y=              0.0000    Z=             -0.0000  Tot=              0.0000
 Quadrupole moment (field-independent basis, Debye-Ang):
   XX=              0.3232   YY=            -25.8191   ZZ=            -20.8408
   XY=             -0.0000   XZ=              0.0000   YZ=             -0.0022

 Normal termination of Gaussian 16 at Mon Apr 21 20:21:49 2025.
