 Gaussian 16, Revision A.03,
 Gaussian 16:  ES64L-G16RevA.03 25-Dec-2016

 --------------------------------------------
 #p opt UM062X/6-311+G** nosymm int=superfine
 --------------------------------------------

 -------------------
 Title Card Required
 -------------------
 Symbolic Z-matrix:
 Charge =  0 Multiplicity = 1

 SCF Done:  E(UM062X) =  -582.374615062     A.U. after   10 cycles
 SCF Done:  E(UM062X) =  -582.376915919     A.U. after    9 cycles
 SCF Done:  E(UM062X) =  -582.377552421     A.U. after    9 cycles
 Optimization completed.
    -- Stationary point found.

                          Input orientation:
 ---------------------------------------------------------------------
 Center     Atomic      Atomic             Coordinates (Angstroms)
 Number     Number       Type             X           Y           Z
 ---------------------------------------------------------------------
      1         14           0       -2.319819    0.000000    0.000000
      2         14           0        2.319819    0.000000    0.000000
      3          1           0        2.723194   -1.419349   -0.000054
      4          1           0       -2.723138   -0.709587    1.229268
      5          1           0        2.723277    0.709759   -1.229123
      6          1           0        2.723147    0.709640    1.229234
      7          1           0       -2.723198    1.419348   -0.000109
      8          1           0       -2.723284   -0.709814   -1.229089
 ---------------------------------------------------------------------

 Alpha  occ. eigenvalues --  -67.01895 -67.01895  -5.56797  -5.56796  -3.88031
 Alpha  occ. eigenvalues --   -3.88030  -3.87789  -3.87789  -3.87789  -3.87789
 Alpha  occ. eigenvalues --   -0.61165  -0.60892  -0.42123  -0.42122  -0.42066
 Alpha  occ. eigenvalues --   -0.42065  -0.21743
 Alpha virt. eigenvalues --   -0.10947   0.02029   0.02944   0.02944   0.03260
 Alpha virt. eigenvalues --    0.05042   0.05042   0.06132   0.06709   0.07495
 Alpha virt. eigenvalues --    0.07495   0.08576   0.08577   0.11737   0.15773

  Beta  occ. eigenvalues --  -67.01895 -67.01895  -5.56797  -5.56796  -3.88031
  Beta  occ. eigenvalues --   -3.88030  -3.87789  -3.87789  -3.87789  -3.87789
  Beta  occ. eigenvalues --   -0.61165  -0.60892  -0.42123  -0.42122  -0.42066
  Beta  occ. eigenvalues --   -0.42065  -0.21743
  Beta virt. eigenvalues --   -0.10947   0.02029   0.02944   0.02944   0.03260
  Beta virt. eigenvalues --    0.05042   0.05042   0.06132   0.06709   0.07495
  Beta virt. eigenvalues --    0.07495   0.08576   0.08577   0.11737   0.15773

 Mulliken charges and spin densities:
               1          2
     1  Si   0.266378   0.000000
     2  Si   0.266378  -0.000000
     3  H   -0.088791  -0.000000
     4  H   -0.088793   0.000000
     5  H   -0.088794  -0.000000
     6  H   -0.088793  -0.000000
     7  H   -0.088791   0.000000
     8  H   -0.088794   0.000000
 Sum of Mulliken charges =  -0.00000  -0.00000

 Dipole moment (field-independent basis, Debye):
    X=              0.0000    Y=             -0.0000    Z=              0.0000  Tot=              0.0000
 Quadrupole moment (field-independent basis, Debye-Ang):
   XX=            -27.9932   YY=            -32.1768   ZZ=            -32.1769
   XY=             -0.0004   XZ=              0.0000   YZ=              0.0000

 Normal termination of Gaussian 16 at Mon Apr 21 20:21:15 2025.
