 Gaussian 16, Revision A.03,
 Gaussian 16:  ES64L-G16RevA.03 25-Dec-2016

 --------------------------------------------
 #p opt UM062X/6-311+G** nosymm int=superfine
 --------------------------------------------

 -------------------
 Title Card Required
 -------------------
 Symbolic Z-matrix:
 Charge =  1 Multiplicity = 2

 SCF Done:  E(UM062X) =  -78.1336009690     A.U. after    9 cycles
 SCF Done:  E(UM062X) =  -78.1472517858     A.U. after    9 cycles
 SCF Done:  E(UM062X) =  -78.1489572995     A.U. after    8 cycles
 SCF Done:  E(UM062X) =  -78.1490327398     A.U. after    7 cycles
 Optimization completed.
    -- Stationary point found.

                          Input orientation:
 ---------------------------------------------------------------------
 Center     Atomic      Atomic             Coordinates (Angstroms)
 Number     Number       Type             X           Y           Z
 ---------------------------------------------------------------------
      1          6           0       -0.834133    0.000000    0.000000
      2          6           0        0.834133    0.000000    0.000000
      3          1           0       -1.346356   -0.956455   -0.000000
      4          1           0       -1.346456    0.956414    0.000000
      5          1           0        1.346356    0.956455   -0.000000
      6          1           0        1.346456   -0.956414   -0.000000
 ---------------------------------------------------------------------

 Alpha  occ. eigenvalues --  -10.91136 -10.91104  -1.11989  -0.98871  -0.82412
 Alpha  occ. eigenvalues --   -0.75400  -0.74277  -0.61327
 Alpha virt. eigenvalues --   -0.33197  -0.14540  -0.14490  -0.11542  -0.09021
 Alpha virt. eigenvalues --   -0.07497  -0.07199  -0.06029  -0.04641  -0.04575
 Alpha virt. eigenvalues --   -0.01741  -0.01355   0.02996   0.09948   0.18960

  Beta  occ. eigenvalues --  -10.90910 -10.90888  -1.08490  -0.96815  -0.81597
  Beta  occ. eigenvalues --   -0.75051  -0.73138
  Beta virt. eigenvalues --   -0.38681  -0.25309  -0.16136  -0.13676  -0.11879
  Beta virt. eigenvalues --   -0.09107  -0.08208  -0.07229  -0.04606  -0.04594
  Beta virt. eigenvalues --   -0.04005  -0.01144  -0.00821   0.02560   0.10464

 Mulliken charges and spin densities:
               1          2
     1  C   -0.060697   0.539361
     2  C   -0.060697   0.539361
     3  H    0.280344  -0.019681
     4  H    0.280353  -0.019680
     5  H    0.280344  -0.019681
     6  H    0.280353  -0.019680
 Sum of Mulliken charges =   1.00000   1.00000

 Dipole moment (field-independent basis, Debye):
    X=             -0.0000    Y=             -0.0000    Z=             -0.0000  Tot=              0.0000
 Quadrupole moment (field-independent basis, Debye-Ang):
   XX=             -4.2789   YY=             -8.3536   ZZ=            -11.9935
   XY=             -0.0003   XZ=             -0.0000   YZ=             -0.0000

 Normal termination of Gaussian 16 at Tue Nov 19 11:07:54 2024.
