 Gaussian 16, Revision A.03,
 Gaussian 16:  ES64L-G16RevA.03 25-Dec-2016

 --------------------------------------------
 #p opt UM062X/6-311+G** nosymm int=superfine
 --------------------------------------------

 -------------------
 Title Card Required
 -------------------
 Symbolic Z-matrix:
 Charge =  0 Multiplicity = 1

 SCF Done:  E(UM062X) =  -437.164878185     A.U. after   16 cycles
 SCF Done:  E(UM062X) =  -437.166797560     A.U. after   15 cycles
 SCF Done:  E(UM062X) =  -437.167467362     A.U. after   17 cycles
 Optimization completed.
    -- Stationary point found.

                          Input orientation:
 ---------------------------------------------------------------------
 Center     Atomic      Atomic             Coordinates (Angstroms)
 Number     Number       Type             X           Y           Z
 ---------------------------------------------------------------------
      1          6           0       -1.852140    0.000000    0.000000
      2         16           0        1.852140    0.000000    0.000000
      3          1           0       -2.523839   -0.875585   -0.000006
      4          1           0       -2.524791    0.874854   -0.000135
 ---------------------------------------------------------------------

 Alpha  occ. eigenvalues --  -89.93395 -10.64071  -8.29419  -6.22186  -6.20640
 Alpha  occ. eigenvalues --   -6.20638  -0.78216  -0.73553  -0.50767  -0.34043
 Alpha  occ. eigenvalues --   -0.30946  -0.30932
 Alpha virt. eigenvalues --   -0.15844  -0.10606   0.01155   0.04960   0.05391
 Alpha virt. eigenvalues --    0.06601   0.08160   0.08844   0.09218   0.14044
 Alpha virt. eigenvalues --    0.17058   0.18014   0.35722   0.36658   0.36957

  Beta  occ. eigenvalues --  -89.93395 -10.64071  -8.29419  -6.22186  -6.20640
  Beta  occ. eigenvalues --   -6.20638  -0.78216  -0.73553  -0.50767  -0.34043
  Beta  occ. eigenvalues --   -0.30946  -0.30932
  Beta virt. eigenvalues --   -0.15844  -0.10606   0.01155   0.04960   0.05391
  Beta virt. eigenvalues --    0.06601   0.08160   0.08844   0.09218   0.14044
  Beta virt. eigenvalues --    0.17058   0.18014   0.35722   0.36658   0.36957

 Mulliken charges and spin densities:
               1          2
     1  C   -0.275579   0.000000
     2  S   -0.029103  -0.000000
     3  H    0.152335  -0.000000
     4  H    0.152346   0.000000
 Sum of Mulliken charges =  -0.00000  -0.00000

 Dipole moment (field-independent basis, Debye):
    X=             -3.1797    Y=             -0.0011    Z=             -0.0002  Tot=              3.1797
 Quadrupole moment (field-independent basis, Debye-Ang):
   XX=            -10.9736   YY=            -22.3355   ZZ=            -21.8385
   XY=              0.0002   XZ=             -0.0000   YZ=              0.0000

 Normal termination of Gaussian 16 at Mon Apr 21 19:44:41 2025.
