 Gaussian 16, Revision A.03,
 Gaussian 16:  ES64L-G16RevA.03 25-Dec-2016

 --------------------------------------------
 #p opt UM062X/6-311+G** nosymm int=superfine
 --------------------------------------------

 -------------------
 Title Card Required
 -------------------
 Symbolic Z-matrix:
 Charge =  0 Multiplicity = 3

 SCF Done:  E(UM062X) =  -50.7027779045     A.U. after   10 cycles
 SCF Done:  E(UM062X) =  -50.7027799862     A.U. after    7 cycles
 Optimization completed.
    -- Stationary point found.

                          Input orientation:
 ---------------------------------------------------------------------
 Center     Atomic      Atomic             Coordinates (Angstroms)
 Number     Number       Type             X           Y           Z
 ---------------------------------------------------------------------
      1          5           0       -0.928410    0.000000    0.000000
      2          5           0        0.928410    0.000000    0.000000
      3          1           0       -2.102454   -0.000080    0.000000
      4          1           0        2.102454    0.000080   -0.000000
 ---------------------------------------------------------------------

 Alpha  occ. eigenvalues --   -7.10836  -7.10802  -0.59524  -0.54071  -0.42694
 Alpha  occ. eigenvalues --   -0.25026  -0.25026
 Alpha virt. eigenvalues --   -0.01552  -0.01552   0.02161   0.02470   0.05873
 Alpha virt. eigenvalues --    0.05873   0.07071   0.07204   0.08012   0.08012
 Alpha virt. eigenvalues --    0.13974   0.22438   0.28346   0.36426   0.39509

  Beta  occ. eigenvalues --   -7.10601  -7.10560  -0.54791  -0.52220  -0.41272
  Beta virt. eigenvalues --   -0.06767  -0.06767   0.00896   0.01801   0.01801
  Beta virt. eigenvalues --    0.03013   0.05328   0.08113   0.09223   0.09223
  Beta virt. eigenvalues --    0.12713   0.12713   0.15702   0.23653   0.31590

 Mulliken charges and spin densities:
               1          2
     1  B   -0.086281   1.033544
     2  B   -0.086281   1.033544
     3  H    0.086281  -0.033544
     4  H    0.086281  -0.033544
 Sum of Mulliken charges =  -0.00000   2.00000

 Dipole moment (field-independent basis, Debye):
    X=              0.0000    Y=              0.0000    Z=              0.0000  Tot=              0.0000
 Quadrupole moment (field-independent basis, Debye-Ang):
   XX=            -11.6437   YY=            -15.2828   ZZ=            -15.2828
   XY=              0.0001   XZ=             -0.0000   YZ=              0.0000

 1\1\GINC-NODE06\FOpt\UM062X\6-311+G(d,p)\B2H2(3)\SZHAO\21-Apr-2025\0\\
 #p opt UM062X/6-311+G** nosymm int=superfine\\Title Card Required\\0,3
 \B,-0.92841047,0.,0.\B,0.92841047,0.,0.\H,-2.1024538583,-0.0000803558,
 0.\H,2.1024538583,0.0000803558,0.\\Version=ES64L-G16RevA.03\HF=-50.702
 78\S2=2.006793\S2-1=0.\S2A=2.000016\RMSD=3.186e-09\RMSF=1.018e-05\Dipo
 le=0.,0.,0.\Quadrupole=1.8037284,-0.9018642,-0.9018642,0.0000658,0.,0.
 \PG=C*V [C*(H1B1B1H1)]\\@

 Normal termination of Gaussian 16 at Mon Apr 21 17:27:35 2025.
