 Gaussian 16, Revision A.03,
 Gaussian 16:  ES64L-G16RevA.03 25-Dec-2016

 --------------------------------------------
 #p opt UM062X/6-311+G** nosymm int=superfine
 --------------------------------------------

 -------------------
 Title Card Required
 -------------------
 Symbolic Z-matrix:
 Charge =  0 Multiplicity = 1

 SCF Done:  E(UM062X) =  -114.473494595     A.U. after   10 cycles
 SCF Done:  E(UM062X) =  -114.473863968     A.U. after    9 cycles
 SCF Done:  E(UM062X) =  -114.473892357     A.U. after    8 cycles
 SCF Done:  E(UM062X) =  -114.473889712     A.U. after    7 cycles
 SCF Done:  E(UM062X) =  -114.473892147     A.U. after    7 cycles
 SCF Done:  E(UM062X) =  -114.473892242     A.U. after    6 cycles
 SCF Done:  E(UM062X) =  -114.473892399     A.U. after    7 cycles
 Optimization completed.
    -- Stationary point found.

                          Input orientation:
 ---------------------------------------------------------------------
 Center     Atomic      Atomic             Coordinates (Angstroms)
 Number     Number       Type             X           Y           Z
 ---------------------------------------------------------------------
      1          6           0       -0.648311    0.000000    0.000000
      2          8           0        0.648311    0.000000    0.000000
      3          1           0       -1.197316   -0.947163   -0.000007
      4          1           0       -1.197310    0.947166   -0.000006
 ---------------------------------------------------------------------

 Alpha  occ. eigenvalues --  -19.65314 -10.65603  -1.14415  -0.74489  -0.57533
 Alpha  occ. eigenvalues --   -0.52145  -0.44672  -0.35778
 Alpha virt. eigenvalues --   -0.03486   0.01787   0.04502   0.04558   0.06867
 Alpha virt. eigenvalues --    0.15837   0.20688   0.20877   0.24298   0.26099
 Alpha virt. eigenvalues --    0.28465   0.34549   0.47591   0.50587   0.55047

  Beta  occ. eigenvalues --  -19.65314 -10.65603  -1.14415  -0.74489  -0.57533
  Beta  occ. eigenvalues --   -0.52145  -0.44672  -0.35778
  Beta virt. eigenvalues --   -0.03486   0.01787   0.04502   0.04558   0.06867
  Beta virt. eigenvalues --    0.15837   0.20688   0.20877   0.24298   0.26099
  Beta virt. eigenvalues --    0.28465   0.34549   0.47591   0.50587   0.55047

 Mulliken charges and spin densities:
               1          2
     1  C   -0.029819  -0.000000
     2  O   -0.264631   0.000000
     3  H    0.147225   0.000000
     4  H    0.147225   0.000000
 Sum of Mulliken charges =  -0.00000  -0.00000

 Dipole moment (field-independent basis, Debye):
    X=             -2.9623    Y=              0.0000    Z=             -0.0000  Tot=              2.9623
 Quadrupole moment (field-independent basis, Debye-Ang):
   XX=            -11.7239   YY=            -11.4669   ZZ=            -12.0145
   XY=              0.0000   XZ=              0.0000   YZ=              0.0000

 Normal termination of Gaussian 16 at Mon Apr 21 18:47:04 2025.
