 Gaussian 16, Revision A.03,
 Gaussian 16:  ES64L-G16RevA.03 25-Dec-2016

 ---------------------------------------
 #p UM062X/6-311+G** force int=superfine
 ---------------------------------------

 -------------------
 Title Card Required
 -------------------
 Symbolic Z-matrix:
 Charge =  1 Multiplicity = 2

                         Standard orientation:
 ---------------------------------------------------------------------
 Center     Atomic      Atomic             Coordinates (Angstroms)
 Number     Number       Type             X           Y           Z
 ---------------------------------------------------------------------
      1          7           0        0.000000    0.000000    1.055391
      2          7           0        0.000000    0.000000   -1.055391
 ---------------------------------------------------------------------

 SCF Done:  E(UM062X) =  -108.542676030     A.U. after   10 cycles

 Unable to determine electronic state:  partially filled degenerate orbitals.
 Alpha  occ. eigenvalues --  -15.37079 -15.37062  -1.29110  -1.20234  -0.77098
 Alpha  occ. eigenvalues --   -0.74421  -0.71813
 Alpha virt. eigenvalues --   -0.57334  -0.54656  -0.47487  -0.13462  -0.09089
 Alpha virt. eigenvalues --   -0.08842  -0.08829  -0.03690  -0.03134  -0.02857
 Alpha virt. eigenvalues --    0.05599   0.43686   0.45274   0.51850   0.53925

  Beta  occ. eigenvalues --  -15.36627 -15.36616  -1.25246  -1.16843  -0.75200
  Beta  occ. eigenvalues --   -0.70085
  Beta virt. eigenvalues --   -0.52863  -0.50620  -0.45840  -0.45772  -0.14916
  Beta virt. eigenvalues --   -0.09417  -0.09227  -0.09155  -0.04373  -0.03173
  Beta virt. eigenvalues --   -0.03132   0.04216   0.45489   0.45512   0.51713

 Mulliken charges and spin densities:
               1          2
     1  N    0.500000   0.500000
     2  N    0.500000   0.500000
 Sum of Mulliken charges =   1.00000   1.00000

 Dipole moment (field-independent basis, Debye):
    X=              0.0000    Y=              0.0000    Z=              0.0000  Tot=              0.0000
 Quadrupole moment (field-independent basis, Debye-Ang):
   XX=             -8.4734   YY=             -9.9279   ZZ=             -3.3368
   XY=              0.0000   XZ=             -0.0000   YZ=              0.0000

 Optimization completed.
    -- Stationary point found.
 Normal termination of Gaussian 16 at Wed Feb 26 13:55:17 2025.
