 Gaussian 16, Revision A.03,
 Gaussian 16:  ES64L-G16RevA.03 25-Dec-2016

 --------------------------------------------
 #p opt UM062X/6-311+G** nosymm int=superfine
 --------------------------------------------

 -------------------
 Title Card Required
 -------------------
 Symbolic Z-matrix:
 Charge =  0 Multiplicity = 1

 SCF Done:  E(UM062X) =  -110.182147366     A.U. after   12 cycles
 SCF Done:  E(UM062X) =  -110.184630413     A.U. after   13 cycles
 SCF Done:  E(UM062X) =  -110.188968922     A.U. after   17 cycles
 SCF Done:  E(UM062X) =  -110.190138146     A.U. after   18 cycles
 SCF Done:  E(UM062X) =  -110.190141647     A.U. after   17 cycles
 Optimization completed.
    -- Stationary point found.

                          Input orientation:
 ---------------------------------------------------------------------
 Center     Atomic      Atomic             Coordinates (Angstroms)
 Number     Number       Type             X           Y           Z
 ---------------------------------------------------------------------
      1          7           0       -1.665428    0.000000    0.000000
      2          7           0        1.665428    0.000000    0.000000
      3          1           0       -1.439733   -1.014490    0.000000
      4          1           0        1.439733    1.014490    0.000000
 ---------------------------------------------------------------------

 Alpha  occ. eigenvalues --  -14.88568 -14.88566  -0.92918  -0.92193  -0.49191
 Alpha  occ. eigenvalues --   -0.48763  -0.31667  -0.30322
 Alpha virt. eigenvalues --   -0.21334  -0.19800   0.05170   0.07089   0.10747
 Alpha virt. eigenvalues --    0.11481   0.13214   0.14702   0.15481   0.17800
 Alpha virt. eigenvalues --    0.19327   0.22769   0.52273   0.54921   0.72933

  Beta  occ. eigenvalues --  -14.88568 -14.88566  -0.92918  -0.92193  -0.49191
  Beta  occ. eigenvalues --   -0.48763  -0.31667  -0.30322
  Beta virt. eigenvalues --   -0.21334  -0.19800   0.05170   0.07089   0.10747
  Beta virt. eigenvalues --    0.11481   0.13214   0.14702   0.15481   0.17800
  Beta virt. eigenvalues --    0.19327   0.22769   0.52273   0.54921   0.72933

 Mulliken charges and spin densities:
               1          2
     1  N   -0.237129  -0.000000
     2  N   -0.237129   0.000000
     3  H    0.237129   0.000000
     4  H    0.237129  -0.000000
 Sum of Mulliken charges =  -0.00000  -0.00000

 Dipole moment (field-independent basis, Debye):
    X=             -0.0000    Y=             -0.0000    Z=              0.0000  Tot=              0.0000
 Quadrupole moment (field-independent basis, Debye-Ang):
   XX=            -14.7746   YY=            -11.2633   ZZ=            -14.2063
   XY=              5.4905   XZ=             -0.0000   YZ=             -0.0000

 Normal termination of Gaussian 16 at Thu May 15 15:41:26 2025.
