 Gaussian 16, Revision A.03,
 Gaussian 16:  ES64L-G16RevA.03 25-Dec-2016

 --------------------------------------------
 #p opt UM062X/6-311+G** nosymm int=superfine
 --------------------------------------------

 -------------------
 Title Card Required
 -------------------
 Symbolic Z-matrix:
 Charge =  0 Multiplicity = 1

 SCF Done:  E(UM062X) =  -582.522486027     A.U. after    9 cycles
 SCF Done:  E(UM062X) =  -582.522525524     A.U. after    7 cycles
 SCF Done:  E(UM062X) =  -582.522528926     A.U. after    6 cycles
 Optimization completed.
    -- Stationary point found.

                          Input orientation:
 ---------------------------------------------------------------------
 Center     Atomic      Atomic             Coordinates (Angstroms)
 Number     Number       Type             X           Y           Z
 ---------------------------------------------------------------------
      1         14           0       -1.244819    0.000000    0.000000
      2         14           0        1.244819    0.000000    0.000000
      3          1           0        1.745729   -1.393160   -0.000014
      4          1           0       -1.745752   -0.696455    1.206578
      5          1           0        1.745834    0.696557   -1.206484
      6          1           0        1.745755    0.696505    1.206548
      7          1           0       -1.745731    1.393160   -0.000075
      8          1           0       -1.745834   -0.696609   -1.206454
 ---------------------------------------------------------------------

 Alpha  occ. eigenvalues --  -66.99348 -66.99348  -5.54450  -5.54446  -3.85596
 Alpha  occ. eigenvalues --   -3.85566  -3.85554  -3.85554  -3.85551  -3.85551
 Alpha  occ. eigenvalues --   -0.63463  -0.58137  -0.41924  -0.41923  -0.39854
 Alpha  occ. eigenvalues --   -0.39854  -0.33108
 Alpha virt. eigenvalues --    0.00892   0.01883   0.03207   0.03207   0.04359
 Alpha virt. eigenvalues --    0.05508   0.05508   0.05702   0.05702   0.07021
 Alpha virt. eigenvalues --    0.08957   0.08958   0.09765   0.15817   0.18074

  Beta  occ. eigenvalues --  -66.99348 -66.99348  -5.54450  -5.54446  -3.85596
  Beta  occ. eigenvalues --   -3.85566  -3.85554  -3.85554  -3.85551  -3.85551
  Beta  occ. eigenvalues --   -0.63463  -0.58137  -0.41924  -0.41923  -0.39854
  Beta  occ. eigenvalues --   -0.39854  -0.33108
  Beta virt. eigenvalues --    0.00892   0.01883   0.03207   0.03207   0.04359
  Beta virt. eigenvalues --    0.05508   0.05508   0.05702   0.05702   0.07021
  Beta virt. eigenvalues --    0.08957   0.08958   0.09765   0.15817   0.18074

 Mulliken charges and spin densities:
               1          2
     1  Si   0.300284   0.000000
     2  Si   0.300284   0.000000
     3  H   -0.100096   0.000000
     4  H   -0.100094  -0.000000
     5  H   -0.100094  -0.000000
     6  H   -0.100094  -0.000000
     7  H   -0.100096  -0.000000
     8  H   -0.100093  -0.000000
 Sum of Mulliken charges =  -0.00000   0.00000

 Dipole moment (field-independent basis, Debye):
    X=              0.0000    Y=              0.0000    Z=             -0.0001  Tot=              0.0001
 Quadrupole moment (field-independent basis, Debye-Ang):
   XX=            -32.1032   YY=            -31.3864   ZZ=            -31.3863
   XY=              0.0003   XZ=             -0.0000   YZ=             -0.0000

 Normal termination of Gaussian 16 at Mon Apr 21 20:18:20 2025.
