 Gaussian 16, Revision A.03,
 Gaussian 16:  ES64L-G16RevA.03 25-Dec-2016

 ---------------------------------------------------
 #p UM062X/6-311+G** force int=superfine pop=saveNBO
 ---------------------------------------------------

 -------------------
 Title Card Required
 -------------------
 Symbolic Z-matrix:
 Charge =  0 Multiplicity = 1

                         Standard orientation:
 ---------------------------------------------------------------------
 Center     Atomic      Atomic             Coordinates (Angstroms)
 Number     Number       Type             X           Y           Z
 ---------------------------------------------------------------------
      1          6           0        0.000000    0.000000   -1.548067
      2         16           0        0.000000    0.000000    0.580525
 ---------------------------------------------------------------------

 SCF Done:  E(UM062X) =  -436.045398856     A.U. after   13 cycles

 The electronic state is 1-SG.
 Alpha  occ. eigenvalues --  -89.95689 -10.77190  -8.31437  -6.23386  -6.23152
 Alpha  occ. eigenvalues --   -6.23152  -0.80413  -0.65038  -0.38286  -0.34320
 Alpha  occ. eigenvalues --   -0.34320
 Alpha virt. eigenvalues --   -0.13007  -0.13007  -0.02848   0.03767   0.05801
 Alpha virt. eigenvalues --    0.05801   0.06037   0.08673   0.09673   0.09673
 Alpha virt. eigenvalues --    0.16077   0.33459   0.35512   0.35512   0.54145

  Beta  occ. eigenvalues --  -89.95689 -10.77190  -8.31437  -6.23386  -6.23152
  Beta  occ. eigenvalues --   -6.23152  -0.80413  -0.65038  -0.38286  -0.34320
  Beta  occ. eigenvalues --   -0.34320
  Beta virt. eigenvalues --   -0.13007  -0.13007  -0.02848   0.03767   0.05801
  Beta virt. eigenvalues --    0.05801   0.06037   0.08673   0.09673   0.09673
  Beta virt. eigenvalues --    0.16077   0.33459   0.35512   0.35512   0.54145

 Mulliken charges and spin densities:
               1          2
     1  C    0.092243  -0.000000
     2  S   -0.092243   0.000000
 Sum of Mulliken charges =   0.00000   0.00000

 Dipole moment (field-independent basis, Debye):
    X=              0.0000    Y=              0.0000    Z=             -0.6367  Tot=              0.6367
 Quadrupole moment (field-independent basis, Debye-Ang):
   XX=            -20.0173   YY=            -20.0173   ZZ=            -18.3768
   XY=              0.0000   XZ=              0.0000   YZ=              0.0000

 Summary of Natural Population Analysis:

                                       Natural Population
                Natural  -----------------------------------------------
    Atom  No    Charge         Core      Valence    Rydberg      Total
 -----------------------------------------------------------------------
      C    1    0.08447      0.99999     1.91222    0.00332     2.91553
      S    2   -0.08447      4.99993     3.07699    0.00755     8.08447
 =======================================================================
   * Total *    0.00000      5.99992     4.98921    0.01087    11.00000

 Normal termination of Gaussian 16 at Mon Apr 21 19:45:36 2025.
