 Gaussian 16, Revision A.03,
 Gaussian 16:  ES64L-G16RevA.03 25-Dec-2016

 ---------------------------------------
 #p UM062X/6-311+G** force int=superfine
 ---------------------------------------

 -------------------
 Title Card Required
 -------------------
 Symbolic Z-matrix:
 Charge =  1 Multiplicity = 2

                         Standard orientation:
 ---------------------------------------------------------------------
 Center     Atomic      Atomic             Coordinates (Angstroms)
 Number     Number       Type             X           Y           Z
 ---------------------------------------------------------------------
      1          6           0        0.970137   -0.000005    0.000057
      2          6           0       -0.970137   -0.000004   -0.000056
      3          1           0       -1.119590    0.027570    1.075382
      4          1           0        1.118857    0.945252    0.513926
      5          1           0       -1.119016   -0.945193   -0.514003
      6          1           0       -1.118833    0.917655   -0.561734
      7          1           0        1.119599   -0.027634   -1.075379
      8          1           0        1.118982   -0.917597    0.561805
 ---------------------------------------------------------------------

 SCF Done:  E(UM062X) =  -79.3690749098     A.U. after    9 cycles

 The electronic state is 2-A.
 Alpha  occ. eigenvalues --  -10.86121 -10.86108  -1.11859  -1.01137  -0.79388
 Alpha  occ. eigenvalues --   -0.79385  -0.73394  -0.73394  -0.64698
 Alpha virt. eigenvalues --   -0.21578  -0.16681  -0.11321  -0.11321  -0.09757
 Alpha virt. eigenvalues --   -0.07458  -0.06500  -0.06498  -0.05666  -0.05664
 Alpha virt. eigenvalues --   -0.01687   0.01494   0.01498   0.04067   0.07467

  Beta  occ. eigenvalues --  -10.85899 -10.85898  -1.08230  -0.98035  -0.78335
  Beta  occ. eigenvalues --   -0.78333  -0.72551  -0.72550
  Beta virt. eigenvalues --   -0.40808  -0.16249  -0.16209  -0.11198  -0.11198
  Beta virt. eigenvalues --   -0.07649  -0.07482  -0.06675  -0.06674  -0.05241
  Beta virt. eigenvalues --   -0.05238  -0.00663   0.02197   0.02200   0.04613

 Mulliken charges and spin densities:
               1          2
     1  C   -0.322452   0.540847
     2  C   -0.322453   0.540847
     3  H    0.274159  -0.013649
     4  H    0.274144  -0.013599
     5  H    0.274150  -0.013602
     6  H    0.274143  -0.013597
     7  H    0.274159  -0.013649
     8  H    0.274150  -0.013600
 Sum of Mulliken charges =   1.00000   1.00000

 Dipole moment (field-independent basis, Debye):
    X=              0.0000    Y=              0.0000    Z=             -0.0000  Tot=              0.0000
 Quadrupole moment (field-independent basis, Debye-Ang):
   XX=             -6.7676   YY=            -10.7270   ZZ=            -10.7274
   XY=             -0.0000   XZ=             -0.0003   YZ=             -0.0000

 Normal termination of Gaussian 16 at Wed Nov 13 13:43:21 2024.
