 Gaussian 16, Revision A.03,
 Gaussian 16:  ES64L-G16RevA.03 25-Dec-2016

 --------------------------------------------
 #p opt UM062X/6-311+G** nosymm int=superfine
 --------------------------------------------

 -------------------
 Title Card Required
 -------------------
 Symbolic Z-matrix:
 Charge = -1 Multiplicity = 2

 SCF Done:  E(UM062X) =  -53.2065989986     A.U. after   11 cycles
 SCF Done:  E(UM062X) =  -53.2100183358     A.U. after   11 cycles
 SCF Done:  E(UM062X) =  -53.2107603050     A.U. after   10 cycles
 SCF Done:  E(UM062X) =  -53.2107631914     A.U. after    8 cycles
 Optimization completed.
    -- Stationary point found.

                          Input orientation:
 ---------------------------------------------------------------------
 Center     Atomic      Atomic             Coordinates (Angstroms)
 Number     Number       Type             X           Y           Z
 ---------------------------------------------------------------------
      1          5           0       -1.865672    0.000000    0.000000
      2          5           0        1.865672    0.000000    0.000000
      3          1           0        1.942978   -1.196605   -0.000014
      4          1           0       -1.942894   -0.598295    1.036302
      5          1           0        1.943046    0.598313   -1.036281
      6          1           0        1.942838    0.598281    1.036313
      7          1           0       -1.942985    1.196604   -0.000000
      8          1           0       -1.942982   -0.598300   -1.036292
 ---------------------------------------------------------------------

 Alpha  occ. eigenvalues --   -6.84040  -6.84039  -0.39630  -0.38827  -0.21380
 Alpha  occ. eigenvalues --   -0.21380  -0.20969  -0.20968   0.00805
 Alpha virt. eigenvalues --    0.12652   0.17010   0.17747   0.17747   0.18519
 Alpha virt. eigenvalues --    0.18519   0.19869   0.22770   0.23604   0.32914
 Alpha virt. eigenvalues --    0.32915   0.35032   0.35032   0.37682   0.39126

  Beta  occ. eigenvalues --   -6.84001  -6.84001  -0.37787  -0.37276  -0.21185
  Beta  occ. eigenvalues --   -0.21185  -0.20801  -0.20801
  Beta virt. eigenvalues --    0.12317   0.13849   0.14483   0.15623   0.15623
  Beta virt. eigenvalues --    0.18077   0.18078   0.22055   0.22698   0.25777
  Beta virt. eigenvalues --    0.31932   0.31932   0.34427   0.34428   0.37088

 Mulliken charges and spin densities:
               1          2
     1  B   -0.330858   0.572054
     2  B   -0.330858   0.572055
     3  H   -0.056376  -0.024011
     4  H   -0.056381  -0.024022
     5  H   -0.056387  -0.024021
     6  H   -0.056378  -0.024022
     7  H   -0.056377  -0.024011
     8  H   -0.056384  -0.024021
 Sum of Mulliken charges =  -1.00000   1.00000

 Dipole moment (field-independent basis, Debye):
    X=             -0.0000    Y=             -0.0000    Z=              0.0001  Tot=              0.0001
 Quadrupole moment (field-independent basis, Debye-Ang):
   XX=            -41.1098   YY=            -24.2582   ZZ=            -24.2582
   XY=             -0.0000   XZ=              0.0000   YZ=              0.0000

 Normal termination of Gaussian 16 at Mon Apr 21 16:50:00 2025.
