 Gaussian 16, Revision A.03,
 Gaussian 16:  ES64L-G16RevA.03 25-Dec-2016

 --------------------------------------------
 #p opt UM062X/6-311+G** nosymm int=superfine
 --------------------------------------------

 -------------------
 Title Card Required
 -------------------
 Symbolic Z-matrix:
 Charge =  1 Multiplicity = 2

 SCF Done:  E(UM062X) =  -80.1573571206     A.U. after   15 cycles
 SCF Done:  E(UM062X) =  -80.1581927359     A.U. after   10 cycles
 SCF Done:  E(UM062X) =  -80.1581954321     A.U. after    8 cycles
 Optimization completed.
    -- Stationary point found.

                          Input orientation:
 ---------------------------------------------------------------------
 Center     Atomic      Atomic             Coordinates (Angstroms)
 Number     Number       Type             X           Y           Z
 ---------------------------------------------------------------------
      1          5           0       -1.777734    0.000000    0.000000
      2          7           0        1.777734    0.000000    0.000000
      3          1           0       -2.983120   -0.000247    0.000000
      4          1           0        2.813262    0.000045    0.000000
 ---------------------------------------------------------------------

 Alpha  occ. eigenvalues --  -14.95995  -7.53554  -1.09026  -0.86042  -0.62977
 Alpha  occ. eigenvalues --   -0.55501  -0.55501
 Alpha virt. eigenvalues --   -0.44018  -0.34661  -0.34661  -0.15298  -0.11484
 Alpha virt. eigenvalues --   -0.09926  -0.09926  -0.07130  -0.03721   0.01051
 Alpha virt. eigenvalues --    0.01051   0.03536   0.07867   0.12854   0.12854

  Beta  occ. eigenvalues --  -14.93528  -7.54793  -0.96201  -0.89649  -0.68083
  Beta  occ. eigenvalues --   -0.57311
  Beta virt. eigenvalues --   -0.35840  -0.35840  -0.20226  -0.20226  -0.14550
  Beta virt. eigenvalues --   -0.10651  -0.09645  -0.09645  -0.07120  -0.02613
  Beta virt. eigenvalues --    0.03017   0.03017   0.06163   0.08313   0.16269

 Mulliken charges and spin densities:
               1          2
     1  B    0.749629  -0.840363
     2  N   -0.245732   2.051856
     3  H    0.223549  -0.143286
     4  H    0.272554  -0.068206
 Sum of Mulliken charges =   1.00000   1.00000

 Dipole moment (field-independent basis, Debye):
    X=             -6.9199    Y=             -0.0001    Z=              0.0000  Tot=              6.9199
 Quadrupole moment (field-independent basis, Debye-Ang):
   XX=             16.5560   YY=            -10.2804   ZZ=            -10.2804
   XY=              0.0006   XZ=             -0.0000   YZ=             -0.0000

 Normal termination of Gaussian 16 at Mon Apr 21 17:59:29 2025.
