 Gaussian 16, Revision A.03,
 Gaussian 16:  ES64L-G16RevA.03 25-Dec-2016

 --------------------------------------------
 #p opt UM062X/6-311+G** nosymm int=superfine
 --------------------------------------------

 -------------------
 Title Card Required
 -------------------
 Symbolic Z-matrix:
 Charge =  0 Multiplicity = 1

 SCF Done:  E(UM062X) =  -797.411529887     A.U. after   13 cycles
 SCF Done:  E(UM062X) =  -797.412040272     A.U. after   12 cycles
 SCF Done:  E(UM062X) =  -797.413023312     A.U. after   15 cycles
 SCF Done:  E(UM062X) =  -797.413093125     A.U. after   14 cycles
 SCF Done:  E(UM062X) =  -797.413106087     A.U. after   13 cycles
 SCF Done:  E(UM062X) =  -797.413075987     A.U. after   19 cycles
 SCF Done:  E(UM062X) =  -797.413122925     A.U. after   15 cycles
 SCF Done:  E(UM062X) =  -797.413123618     A.U. after   11 cycles
 SCF Done:  E(UM062X) =  -797.413123716     A.U. after   21 cycles
 Optimization completed.
    -- Stationary point found.

                          Input orientation:
 ---------------------------------------------------------------------
 Center     Atomic      Atomic             Coordinates (Angstroms)
 Number     Number       Type             X           Y           Z
 ---------------------------------------------------------------------
      1         16           0       -1.893191    0.000000    0.000000
      2         16           0        1.893191    0.000000    0.000000
      3          1           0       -1.774561   -1.318553   -0.244967
      4          1           0        1.773666    0.272172    1.313026
 ---------------------------------------------------------------------

 Alpha  occ. eigenvalues --  -89.94685 -89.94684  -8.30887  -8.30886  -6.23040
 Alpha  occ. eigenvalues --   -6.23040  -6.22779  -6.22779  -6.22214  -6.22214
 Alpha  occ. eigenvalues --   -0.81678  -0.81013  -0.47407  -0.47336  -0.33533
 Alpha  occ. eigenvalues --   -0.33271  -0.32074
 Alpha virt. eigenvalues --   -0.20597   0.01940   0.03087   0.04461   0.04940
 Alpha virt. eigenvalues --    0.06497   0.06956   0.07324   0.07460   0.09912
 Alpha virt. eigenvalues --    0.13059   0.30666   0.31149   0.32898   0.34622

  Beta  occ. eigenvalues --  -89.94685 -89.94684  -8.30887  -8.30886  -6.23040
  Beta  occ. eigenvalues --   -6.23040  -6.22779  -6.22779  -6.22214  -6.22214
  Beta  occ. eigenvalues --   -0.81678  -0.81013  -0.47407  -0.47336  -0.33533
  Beta  occ. eigenvalues --   -0.33271  -0.32074
  Beta virt. eigenvalues --   -0.20597   0.01940   0.03087   0.04461   0.04940
  Beta virt. eigenvalues --    0.06497   0.06956   0.07324   0.07460   0.09912
  Beta virt. eigenvalues --    0.13059   0.30666   0.31149   0.32898   0.34622

 Mulliken charges and spin densities:
               1          2
     1  S   -0.084910  -0.000000
     2  S   -0.084845   0.000000
     3  H    0.084880  -0.000000
     4  H    0.084874  -0.000000
 Sum of Mulliken charges =   0.00000   0.00000

 Dipole moment (field-independent basis, Debye):
    X=             -0.0005    Y=             -0.8625    Z=              0.8807  Tot=              1.2327
 Quadrupole moment (field-independent basis, Debye-Ang):
   XX=            -25.1891   YY=            -28.0543   ZZ=            -28.1181
   XY=              2.4922   XZ=              2.4396   YZ=              1.5345

 Normal termination of Gaussian 16 at Mon Apr 21 21:13:48 2025.
