 Gaussian 16, Revision A.03,
 Gaussian 16:  ES64L-G16RevA.03 25-Dec-2016

 ---------------------------------------------------------
 #p opt UM062X/6-311+G** nosymm int=superfine SCF=NoVarAcc
 ---------------------------------------------------------

 -------------------
 Title Card Required
 -------------------
 Symbolic Z-matrix:
 Charge =  1 Multiplicity = 2

 SCF Done:  E(UM062X) =  -77.8763864619     A.U. after    9 cycles
 SCF Done:  E(UM062X) =  -77.8772969231     A.U. after    9 cycles
 SCF Done:  E(UM062X) =  -77.8778125082     A.U. after   13 cycles
 SCF Done:  E(UM062X) =  -77.8778153160     A.U. after   10 cycles
 Optimization completed.
    -- Stationary point found.

                          Input orientation:
 ---------------------------------------------------------------------
 Center     Atomic      Atomic             Coordinates (Angstroms)
 Number     Number       Type             X           Y           Z
 ---------------------------------------------------------------------
      1          6           0       -1.581027    0.000000    0.000000
      2          6           0        1.581027    0.000000    0.000000
      3          1           0       -1.951415   -1.021104    0.000011
      4          1           0       -1.951391    1.021115    0.000011
      5          1           0        1.951415    1.021104   -0.000011
      6          1           0        1.951391   -1.021115   -0.000011
 ---------------------------------------------------------------------

 Alpha  occ. eigenvalues --  -10.91421 -10.91417  -1.01762  -1.00791  -0.78994
 Alpha  occ. eigenvalues --   -0.78718  -0.54062  -0.49584
 Alpha virt. eigenvalues --   -0.39886  -0.37547  -0.12937  -0.10465  -0.10456
 Alpha virt. eigenvalues --   -0.07514  -0.07407  -0.06060  -0.04873  -0.04399
 Alpha virt. eigenvalues --   -0.02981   0.01569   0.02163   0.09349   0.22498

  Beta  occ. eigenvalues --  -10.91150 -10.91148  -0.98990  -0.98216  -0.78637
  Beta  occ. eigenvalues --   -0.78366  -0.52082
  Beta virt. eigenvalues --   -0.35352  -0.30983  -0.29452  -0.13895  -0.10885
  Beta virt. eigenvalues --   -0.10732  -0.07377  -0.07313  -0.06030  -0.04446
  Beta virt. eigenvalues --   -0.03880  -0.03368  -0.00183   0.02319   0.10224

 Mulliken charges and spin densities:
               1          2
     1  C   -0.060316   0.540634
     2  C   -0.060317   0.540641
     3  H    0.280158  -0.020319
     4  H    0.280158  -0.020319
     5  H    0.280158  -0.020319
     6  H    0.280158  -0.020319
 Sum of Mulliken charges =   1.00000   1.00000

 Dipole moment (field-independent basis, Debye):
    X=             -0.0000    Y=             -0.0000    Z=              0.0000  Tot=              0.0000
 Quadrupole moment (field-independent basis, Debye-Ang):
   XX=              7.3644   YY=             -7.7206   ZZ=            -13.0363
   XY=              0.0000   XZ=             -0.0001   YZ=              0.0000

 Normal termination of Gaussian 16 at Tue Dec  3 13:27:20 2024.
