 Gaussian 16, Revision A.03,
 Gaussian 16:  ES64L-G16RevA.03 25-Dec-2016

 --------------------------------------------
 #p opt UM062X/6-311+G** nosymm int=superfine
 --------------------------------------------

 -------------------
 Title Card Required
 -------------------
 Symbolic Z-matrix:
 Charge =  0 Multiplicity = 1

 SCF Done:  E(UM062X) =  -582.432966828     A.U. after    9 cycles
 SCF Done:  E(UM062X) =  -582.434487340     A.U. after    8 cycles
 SCF Done:  E(UM062X) =  -582.434769144     A.U. after    8 cycles
 Optimization completed.
    -- Stationary point found.

                          Input orientation:
 ---------------------------------------------------------------------
 Center     Atomic      Atomic             Coordinates (Angstroms)
 Number     Number       Type             X           Y           Z
 ---------------------------------------------------------------------
      1         14           0       -1.794819    0.000000    0.000000
      2         14           0        1.794819    0.000000    0.000000
      3          1           0        2.227526   -1.411262   -0.000057
      4          1           0       -2.227550   -0.705500    1.222267
      5          1           0        2.227652    0.705672   -1.222131
      6          1           0        2.227557    0.705552    1.222235
      7          1           0       -2.227528    1.411261   -0.000116
      8          1           0       -2.227656   -0.705725   -1.222099
 ---------------------------------------------------------------------

 Alpha  occ. eigenvalues --  -67.01406 -67.01406  -5.56239  -5.56238  -3.87452
 Alpha  occ. eigenvalues --   -3.87451  -3.87269  -3.87269  -3.87269  -3.87269
 Alpha  occ. eigenvalues --   -0.61108  -0.60119  -0.41718  -0.41717  -0.41383
 Alpha  occ. eigenvalues --   -0.41383  -0.25193
 Alpha virt. eigenvalues --   -0.06642   0.02175   0.02916   0.02916   0.03645
 Alpha virt. eigenvalues --    0.05159   0.05376   0.05376   0.07087   0.07087
 Alpha virt. eigenvalues --    0.07393   0.09079   0.09079   0.14048   0.16826

  Beta  occ. eigenvalues --  -67.01406 -67.01406  -5.56239  -5.56238  -3.87452
  Beta  occ. eigenvalues --   -3.87451  -3.87269  -3.87269  -3.87269  -3.87269
  Beta  occ. eigenvalues --   -0.61108  -0.60119  -0.41718  -0.41717  -0.41383
  Beta  occ. eigenvalues --   -0.41383  -0.25193
  Beta virt. eigenvalues --   -0.06642   0.02175   0.02916   0.02916   0.03645
  Beta virt. eigenvalues --    0.05159   0.05376   0.05376   0.07087   0.07087
  Beta virt. eigenvalues --    0.07393   0.09079   0.09079   0.14048   0.16826

 Mulliken charges and spin densities:
               1          2
     1  Si   0.282439  -0.000000
     2  Si   0.282439  -0.000000
     3  H   -0.094147  -0.000000
     4  H   -0.094146   0.000000
     5  H   -0.094146   0.000000
     6  H   -0.094146   0.000000
     7  H   -0.094147  -0.000000
     8  H   -0.094146  -0.000000
 Sum of Mulliken charges =  -0.00000  -0.00000

 Dipole moment (field-independent basis, Debye):
    X=             -0.0000    Y=             -0.0000    Z=              0.0000  Tot=              0.0000
 Quadrupole moment (field-independent basis, Debye-Ang):
   XX=            -29.6707   YY=            -31.9114   ZZ=            -31.9113
   XY=              0.0001   XZ=              0.0000   YZ=              0.0000

 Normal termination of Gaussian 16 at Mon Apr 21 20:14:31 2025.
