 Gaussian 16, Revision A.03,
 Gaussian 16:  ES64L-G16RevA.03 25-Dec-2016

 ---------------------------------------------------
 #p UM062X/6-311+G** force int=superfine pop=saveNBO
 ---------------------------------------------------

 -------------------
 Title Card Required
 -------------------
 Symbolic Z-matrix:
 Charge =  0 Multiplicity = 1

                         Standard orientation:
 ---------------------------------------------------------------------
 Center     Atomic      Atomic             Coordinates (Angstroms)
 Number     Number       Type             X           Y           Z
 ---------------------------------------------------------------------
      1         15           0        0.000000    0.000000    0.963495
      2         15           0        0.000000    0.000000   -0.963495
 ---------------------------------------------------------------------

 SCF Done:  E(UM062X) =  -682.659898461     A.U. after    9 cycles

 The electronic state is 1-SGG.
 Alpha  occ. eigenvalues --  -78.05248 -78.05248  -6.87779  -6.87739  -4.99185
 Alpha  occ. eigenvalues --   -4.99185  -4.99168  -4.99168  -4.99100  -4.98945
 Alpha  occ. eigenvalues --   -0.76321  -0.53158  -0.34743  -0.33196  -0.33196
 Alpha virt. eigenvalues --   -0.07086  -0.07086   0.02319   0.02780   0.04024
 Alpha virt. eigenvalues --    0.04024   0.05883   0.07235   0.07235   0.10595
 Alpha virt. eigenvalues --    0.13884   0.25334   0.30469   0.30469   0.35172

  Beta  occ. eigenvalues --  -78.05248 -78.05248  -6.87779  -6.87739  -4.99185
  Beta  occ. eigenvalues --   -4.99185  -4.99168  -4.99168  -4.99100  -4.98945
  Beta  occ. eigenvalues --   -0.76321  -0.53158  -0.34743  -0.33196  -0.33196
  Beta virt. eigenvalues --   -0.07086  -0.07086   0.02319   0.02780   0.04024
  Beta virt. eigenvalues --    0.04024   0.05883   0.07235   0.07235   0.10595
  Beta virt. eigenvalues --    0.13884   0.25334   0.30469   0.30469   0.35172

 Mulliken charges and spin densities:
               1          2
     1  P   -0.000000   0.000000
     2  P   -0.000000   0.000000
 Sum of Mulliken charges =  -0.00000   0.00000

 Dipole moment (field-independent basis, Debye):
    X=             -0.0000    Y=             -0.0000    Z=             -0.0000  Tot=              0.0000
 Quadrupole moment (field-independent basis, Debye-Ang):
   XX=            -26.4532   YY=            -26.4532   ZZ=            -26.5275
   XY=              0.0000   XZ=             -0.0000   YZ=             -0.0000

 Summary of Natural Population Analysis:

                                       Natural Population
                Natural  -----------------------------------------------
    Atom  No    Charge         Core      Valence    Rydberg      Total
 -----------------------------------------------------------------------
      P    1    0.00000      4.99959     2.47867    0.02174     7.50000
      P    2   -0.00000      4.99959     2.47867    0.02174     7.50000
 =======================================================================
   * Total *   -0.00000      9.99918     4.95734    0.04348    15.00000

 Normal termination of Gaussian 16 at Mon Apr 21 21:19:22 2025.
