 Gaussian 16, Revision A.03,
 Gaussian 16:  ES64L-G16RevA.03 25-Dec-2016

 ---------------------------------------------------
 #p UM062X/6-311+G** force int=superfine pop=saveNBO
 ---------------------------------------------------

 -------------------
 Title Card Required
 -------------------
 Symbolic Z-matrix:
 Charge =  0 Multiplicity = 1

                         Standard orientation:
 ---------------------------------------------------------------------
 Center     Atomic      Atomic             Coordinates (Angstroms)
 Number     Number       Type             X           Y           Z
 ---------------------------------------------------------------------
      1          8           0        0.000000    0.000000    1.293562
      2          8           0        0.000000    0.000000   -1.293562
 ---------------------------------------------------------------------

 SCF Done:  E(UM062X) =  -149.859520598     A.U. after   10 cycles

 Unable to determine electronic state:  partially filled degenerate orbitals.
 Alpha  occ. eigenvalues --  -19.83481 -19.83477  -1.11400  -1.09567  -0.49371
 Alpha  occ. eigenvalues --   -0.48270  -0.44046  -0.41630
 Alpha virt. eigenvalues --   -0.29719  -0.26961   0.10065   0.12735   0.14747
 Alpha virt. eigenvalues --    0.14807   0.20104   0.20389   0.21184   0.30583
 Alpha virt. eigenvalues --    0.90544   0.98187   0.99321   1.03311   1.04641

  Beta  occ. eigenvalues --  -19.83481 -19.83477  -1.11400  -1.09567  -0.49371
  Beta  occ. eigenvalues --   -0.48270  -0.44046  -0.41630
  Beta virt. eigenvalues --   -0.29719  -0.26961   0.10065   0.12735   0.14747
  Beta virt. eigenvalues --    0.14807   0.20104   0.20389   0.21184   0.30583
  Beta virt. eigenvalues --    0.90544   0.98187   0.99321   1.03311   1.04641

 Mulliken charges and spin densities:
               1          2
     1  O    0.000000   0.000000
     2  O    0.000000   0.000000
 Sum of Mulliken charges =   0.00000   0.00000

 Dipole moment (field-independent basis, Debye):
    X=              0.0000    Y=              0.0000    Z=             -0.0000  Tot=              0.0000
 Quadrupole moment (field-independent basis, Debye-Ang):
   XX=            -10.1906   YY=            -11.9807   ZZ=             -9.1080
   XY=              0.0000   XZ=             -0.0000   YZ=              0.0000

 Summary of Natural Population Analysis:

                                       Natural Population
                Natural  -----------------------------------------------
    Atom  No    Charge         Core      Valence    Rydberg      Total
 -----------------------------------------------------------------------
      O    1   -0.00000      1.00000     2.99910    0.00090     4.00000
      O    2    0.00000      1.00000     2.99910    0.00090     4.00000
 =======================================================================
   * Total *    0.00000      2.00000     5.99820    0.00180     8.00000

 Normal termination of Gaussian 16 at Mon Apr 21 19:53:22 2025.
