 Gaussian 16, Revision A.03,
 Gaussian 16:  ES64L-G16RevA.03 25-Dec-2016

 --------------------------------------------
 #p opt UM062X/6-311+G** nosymm int=superfine
 --------------------------------------------

 -------------------
 Title Card Required
 -------------------
 Symbolic Z-matrix:
 Charge =  0 Multiplicity = 3

 SCF Done:  E(UM062X) =  -50.5250102437     A.U. after   13 cycles
 SCF Done:  E(UM062X) =  -50.5250742818     A.U. after   13 cycles
 Optimization completed.
    -- Stationary point found.

                          Input orientation:
 ---------------------------------------------------------------------
 Center     Atomic      Atomic             Coordinates (Angstroms)
 Number     Number       Type             X           Y           Z
 ---------------------------------------------------------------------
      1          5           0       -1.303410    0.000000    0.000000
      2          5           0        1.303410    0.000000    0.000000
      3          1           0       -2.484189   -0.000081    0.000000
      4          1           0        2.484189    0.000081   -0.000000
 ---------------------------------------------------------------------

 Alpha  occ. eigenvalues --   -7.16264  -7.16254  -0.58190  -0.56437  -0.36803
 Alpha  occ. eigenvalues --   -0.21917  -0.21917
 Alpha virt. eigenvalues --   -0.08941  -0.07666  -0.07666   0.02528   0.02615
 Alpha virt. eigenvalues --    0.06657   0.06657   0.07675   0.07675   0.07938
 Alpha virt. eigenvalues --    0.13086   0.20612   0.23410   0.37036   0.38068

  Beta  occ. eigenvalues --   -7.15982  -7.15978  -0.55109  -0.54394  -0.34188
  Beta virt. eigenvalues --   -0.06296  -0.06296  -0.03862  -0.01900  -0.01900
  Beta virt. eigenvalues --    0.00597   0.02784   0.05530   0.07925   0.07925
  Beta virt. eigenvalues --    0.10083   0.10607   0.10607   0.21404   0.24714

 Mulliken charges and spin densities:
               1          2
     1  B   -0.125211   1.041369
     2  B   -0.125211   1.041369
     3  H    0.125211  -0.041369
     4  H    0.125211  -0.041369
 Sum of Mulliken charges =  -0.00000   2.00000

 Dipole moment (field-independent basis, Debye):
    X=             -0.0000    Y=              0.0000    Z=             -0.0000  Tot=              0.0000
 Quadrupole moment (field-independent basis, Debye-Ang):
   XX=             -9.6507   YY=            -16.8317   ZZ=            -16.8318
   XY=              0.0023   XZ=             -0.0000   YZ=             -0.0000

 1\1\GINC-NODE06\FOpt\UM062X\6-311+G(d,p)\B2H2(3)\SZHAO\21-Apr-2025\0\\
 #p opt UM062X/6-311+G** nosymm int=superfine\\Title Card Required\\0,3
 \B,-1.30341047,0.,0.\B,1.30341047,0.,0.\H,-2.4841886403,-0.0000807461,
 0.0000000001\H,2.4841886076,0.0000807535,-0.0000000001\\Version=ES64L-
 G16RevA.03\HF=-50.5250743\S2=2.010621\S2-1=0.\S2A=2.000034\RMSD=4.723e
 -09\RMSF=2.247e-05\Dipole=0.,0.,0.\Quadrupole=3.5592735,-1.7796348,-1.
 7796387,0.0017012,0.,0.\PG=C*V [C*(H1B1B1H1)]\\@

 Normal termination of Gaussian 16 at Mon Apr 21 17:28:11 2025.
