 Gaussian 16, Revision A.03,
 Gaussian 16:  ES64L-G16RevA.03 25-Dec-2016

 --------------------------------------------
 #p opt UM062X/6-311+G** nosymm int=superfine
 --------------------------------------------

 -------------------
 Title Card Required
 -------------------
 Symbolic Z-matrix:
 Charge =  0 Multiplicity = 3

 SCF Done:  E(UM062X) =  -50.7141625558     A.U. after   10 cycles
 SCF Done:  E(UM062X) =  -50.7141640049     A.U. after    7 cycles
 Optimization completed.
    -- Stationary point found.

                          Input orientation:
 ---------------------------------------------------------------------
 Center     Atomic      Atomic             Coordinates (Angstroms)
 Number     Number       Type             X           Y           Z
 ---------------------------------------------------------------------
      1          5           0       -0.903410    0.000000    0.000000
      2          5           0        0.903410    0.000000    0.000000
      3          1           0       -2.077205   -0.000080    0.000000
      4          1           0        2.077205    0.000080   -0.000000
 ---------------------------------------------------------------------

 Alpha  occ. eigenvalues --   -7.10236  -7.10198  -0.59784  -0.53831  -0.43060
 Alpha  occ. eigenvalues --   -0.25364  -0.25364
 Alpha virt. eigenvalues --   -0.00999  -0.00999   0.02273   0.02470   0.05797
 Alpha virt. eigenvalues --    0.05797   0.07175   0.08066   0.08102   0.08102
 Alpha virt. eigenvalues --    0.14083   0.22513   0.28940   0.36146   0.39460

  Beta  occ. eigenvalues --   -7.10004  -7.09953  -0.54848  -0.51988  -0.41746
  Beta virt. eigenvalues --   -0.06885  -0.06885   0.00920   0.02114   0.02114
  Beta virt. eigenvalues --    0.03022   0.05308   0.08537   0.09188   0.09188
  Beta virt. eigenvalues --    0.12873   0.12873   0.16100   0.23743   0.32056

 Mulliken charges and spin densities:
               1          2
     1  B   -0.081063   1.033541
     2  B   -0.081063   1.033541
     3  H    0.081063  -0.033541
     4  H    0.081063  -0.033541
 Sum of Mulliken charges =  -0.00000   2.00000

 Dipole moment (field-independent basis, Debye):
    X=             -0.0000    Y=              0.0000    Z=             -0.0000  Tot=              0.0000
 Quadrupole moment (field-independent basis, Debye-Ang):
   XX=            -11.7715   YY=            -15.1360   ZZ=            -15.1360
   XY=              0.0001   XZ=             -0.0000   YZ=             -0.0000

 1\1\GINC-NODE06\FOpt\UM062X\6-311+G(d,p)\B2H2(3)\SZHAO\21-Apr-2025\0\\
 #p opt UM062X/6-311+G** nosymm int=superfine\\Title Card Required\\0,3
 \B,-0.90341047,0.,0.\B,0.90341047,0.,0.\H,-2.0772053651,-0.0000803415,
 0.\H,2.0772053651,0.0000803415,0.\\Version=ES64L-G16RevA.03\HF=-50.714
 164\S2=2.006564\S2-1=0.\S2A=2.000015\RMSD=2.692e-09\RMSF=8.627e-06\Dip
 ole=0.,0.,0.\Quadrupole=1.6676003,-0.8338001,-0.8338001,0.0000562,0.,0
 .\PG=C*V [C*(H1B1B1H1)]\\@

 Normal termination of Gaussian 16 at Mon Apr 21 17:27:32 2025.
