 Gaussian 16, Revision A.03,
 Gaussian 16:  ES64L-G16RevA.03 25-Dec-2016

 --------------------------------
 #p UM062X/6-311+G** Pop=NBO Read
 --------------------------------

 ------------
 NBO Analysis
 ------------
 Symbolic Z-matrix:
 Charge =  0 Multiplicity = 1

                         Standard orientation:
 ---------------------------------------------------------------------
 Center     Atomic      Atomic             Coordinates (Angstroms)
 Number     Number       Type             X           Y           Z
 ---------------------------------------------------------------------
      1         15           0        0.000000    1.009490    0.000000
      2         15           0       -0.000000   -1.009490    0.000000
      3          1           0        1.417255    1.112351    0.000000
      4          1           0       -1.417255   -1.112351    0.000000
 ---------------------------------------------------------------------

 SCF Done:  E(UM062X) =  -683.791087247     A.U. after    9 cycles

 The electronic state is 1-AG.
 Alpha  occ. eigenvalues --  -78.06817 -78.06816  -6.87676  -6.87652  -4.99071
 Alpha  occ. eigenvalues --   -4.99063  -4.99017  -4.98973  -4.98829  -4.98792
 Alpha  occ. eigenvalues --   -0.77985  -0.61936  -0.42381  -0.41365  -0.32425
 Alpha  occ. eigenvalues --   -0.31177
 Alpha virt. eigenvalues --   -0.08051   0.01645   0.01975   0.04219   0.05163
 Alpha virt. eigenvalues --    0.05276   0.07648   0.08086   0.08479   0.11163
 Alpha virt. eigenvalues --    0.12340   0.15870   0.34463   0.41671   0.42626

  Beta  occ. eigenvalues --  -78.06817 -78.06816  -6.87676  -6.87652  -4.99071
  Beta  occ. eigenvalues --   -4.99063  -4.99017  -4.98973  -4.98829  -4.98792
  Beta  occ. eigenvalues --   -0.77985  -0.61936  -0.42381  -0.41365  -0.32425
  Beta  occ. eigenvalues --   -0.31177
  Beta virt. eigenvalues --   -0.08051   0.01645   0.01975   0.04219   0.05163
  Beta virt. eigenvalues --    0.05276   0.07648   0.08086   0.08479   0.11163
  Beta virt. eigenvalues --    0.12340   0.15870   0.34463   0.41671   0.42626

 Mulliken charges and spin densities:
               1          2
     1  P    0.041008   0.000000
     2  P    0.041008   0.000000
     3  H   -0.041008   0.000000
     4  H   -0.041008   0.000000
 Sum of Mulliken charges =  -0.00000   0.00000

 Dipole moment (field-independent basis, Debye):
    X=             -0.0000    Y=              0.0000    Z=             -0.0000  Tot=              0.0000
 Quadrupole moment (field-independent basis, Debye-Ang):
   XX=            -27.1067   YY=            -29.4361   ZZ=            -27.9777
   XY=              2.5246   XZ=              0.0000   YZ=             -0.0000

 Summary of Natural Population Analysis:

                                       Natural Population
                Natural  -----------------------------------------------
    Atom  No    Charge         Core      Valence    Rydberg      Total
 -----------------------------------------------------------------------
      P    1    0.00837      4.99953     2.46609    0.02601     7.49163
      P    2    0.00837      4.99953     2.46609    0.02601     7.49163
      H    3   -0.00837      0.00000     0.50730    0.00106     0.50837
      H    4   -0.00837      0.00000     0.50730    0.00106     0.50837
 =======================================================================
   * Total *   -0.00000      9.99905     5.94680    0.05415    16.00000

 Normal termination of Gaussian 16 at Wed Apr 16 06:15:10 2025.
