 Gaussian 16, Revision A.03,
 Gaussian 16:  ES64L-G16RevA.03 25-Dec-2016

 --------------------------------------------
 #p opt UM062X/6-311+G** nosymm int=superfine
 --------------------------------------------

 -------------------
 Title Card Required
 -------------------
 Symbolic Z-matrix:
 Charge =  0 Multiplicity = 1

 SCF Done:  E(UM062X) =  -81.8860771336     A.U. after   11 cycles
 SCF Done:  E(UM062X) =  -81.8891390081     A.U. after    9 cycles
 SCF Done:  E(UM062X) =  -81.8902747641     A.U. after   10 cycles
 SCF Done:  E(UM062X) =  -81.8811957539     A.U. after   11 cycles
 SCF Done:  E(UM062X) =  -81.8903763508     A.U. after    9 cycles
 SCF Done:  E(UM062X) =  -81.8917846208     A.U. after   12 cycles
 SCF Done:  E(UM062X) =  -81.8903079089     A.U. after   13 cycles
 SCF Done:  E(UM062X) =  -81.8965632345     A.U. after   11 cycles
 SCF Done:  E(UM062X) =  -81.8959410402     A.U. after   11 cycles
 SCF Done:  E(UM062X) =  -81.8979587374     A.U. after   10 cycles
 SCF Done:  E(UM062X) =  -81.8981590587     A.U. after   10 cycles
 SCF Done:  E(UM062X) =  -81.8981623567     A.U. after    8 cycles
 Optimization completed.
    -- Stationary point found.

                          Input orientation:
 ---------------------------------------------------------------------
 Center     Atomic      Atomic             Coordinates (Angstroms)
 Number     Number       Type             X           Y           Z
 ---------------------------------------------------------------------
      1          5           0       -1.045399    0.000000    0.000000
      2          7           0        1.045399    0.000000    0.000000
      3          1           0       -1.512580   -1.079464   -0.039931
      4          1           0        1.288980    0.821470    0.549058
      5          1           0       -1.512581    1.079456   -0.040126
      6          1           0        1.288981   -0.821379    0.549194
 ---------------------------------------------------------------------

 Alpha  occ. eigenvalues --  -14.72816  -7.13036  -0.89742  -0.59177  -0.51614
 Alpha  occ. eigenvalues --   -0.45668  -0.37788  -0.30840
 Alpha virt. eigenvalues --   -0.04568   0.01046   0.01736   0.03435   0.05589
 Alpha virt. eigenvalues --    0.08853   0.11872   0.13755   0.15060   0.16505
 Alpha virt. eigenvalues --    0.20238   0.20658   0.21940   0.27903   0.34704

  Beta  occ. eigenvalues --  -14.72816  -7.13036  -0.89742  -0.59177  -0.51614
  Beta  occ. eigenvalues --   -0.45668  -0.37788  -0.30840
  Beta virt. eigenvalues --   -0.04568   0.01046   0.01736   0.03435   0.05589
  Beta virt. eigenvalues --    0.08853   0.11872   0.13755   0.15060   0.16505
  Beta virt. eigenvalues --    0.20238   0.20658   0.21940   0.27903   0.34704

 Mulliken charges and spin densities:
               1          2
     1  B    0.197789   0.000000
     2  N   -0.741590  -0.000000
     3  H    0.032091   0.000000
     4  H    0.239809   0.000000
     5  H    0.032091  -0.000000
     6  H    0.239809   0.000000
 Sum of Mulliken charges =  -0.00000   0.00000

 Dipole moment (field-independent basis, Debye):
    X=             -1.8173    Y=              0.0001    Z=              1.4996  Tot=              2.3562
 Quadrupole moment (field-independent basis, Debye-Ang):
   XX=            -14.6567   YY=            -13.2599   ZZ=            -14.6187
   XY=              0.0002   XZ=              2.3612   YZ=             -0.0001

 Normal termination of Gaussian 16 at Mon Apr 21 17:44:06 2025.
