 Gaussian 16, Revision A.03,
 Gaussian 16:  ES64L-G16RevA.03 25-Dec-2016

 --------------------------------------------
 #p opt UM062X/6-311+G** nosymm int=superfine
 --------------------------------------------

 -------------------
 Title Card Required
 -------------------
 Symbolic Z-matrix:
 Charge =  1 Multiplicity = 2

 SCF Done:  E(UM062X) =  -1615.58707957     A.U. after   23 cycles
 SCF Done:  E(UM062X) =  -1615.58612448     A.U. after   23 cycles
 SCF Done:  E(UM062X) =  -1615.58157910     A.U. after   21 cycles
 SCF Done:  E(UM062X) =  -1615.57278801     A.U. after   21 cycles
 SCF Done:  E(UM062X) =  -1615.58729517     A.U. after   17 cycles
 SCF Done:  E(UM062X) =  -1615.58797232     A.U. after   22 cycles
 SCF Done:  E(UM062X) =  -1615.56880734     A.U. after   25 cycles
 SCF Done:  E(UM062X) =  -1615.58703262     A.U. after   21 cycles
 SCF Done:  E(UM062X) =  -1615.58823650     A.U. after   18 cycles
 SCF Done:  E(UM062X) =  -1615.58803454     A.U. after   21 cycles
 SCF Done:  E(UM062X) =  -1615.58842065     A.U. after   21 cycles
 SCF Done:  E(UM062X) =  -1615.58842931     A.U. after   19 cycles
 SCF Done:  E(UM062X) =  -1615.58843406     A.U. after   15 cycles
 SCF Done:  E(UM062X) =  -1615.58843545     A.U. after   16 cycles
 SCF Done:  E(UM062X) =  -1615.58843599     A.U. after   14 cycles
 SCF Done:  E(UM062X) =  -1615.58843613     A.U. after   12 cycles
 SCF Done:  E(UM062X) =  -1615.58843617     A.U. after   12 cycles
 SCF Done:  E(UM062X) =  -1615.58843619     A.U. after   11 cycles
 Optimization completed.
    -- Stationary point found.

                          Input orientation:
 ---------------------------------------------------------------------
 Center     Atomic      Atomic             Coordinates (Angstroms)
 Number     Number       Type             X           Y           Z
 ---------------------------------------------------------------------
      1          6           0       -1.412391    0.000000    0.000000
      2          6           0        1.412391    0.000000    0.000000
      3          6           0        0.000004   -2.112985   -0.000369
      4          6           0        0.000001   -3.500343   -0.000662
      5          6           0       -1.133442   -4.311475    0.235381
      6          6           0       -1.263812   -1.478442    0.211833
      7          6           0        0.662319   -5.706265   -0.140867
      8          1           0        1.284187   -6.579652   -0.275953
      9          6           0       -1.552396    0.798547    1.194866
     10          6           0       -0.662245   -5.706320    0.139014
     11          1           0       -1.284095   -6.579760    0.273845
     12          6           0        1.133475   -4.311380   -0.236884
     13          6           0        1.263817   -1.478365   -0.212325
     14          6           0        1.720096    2.219653   -1.262773
     15          6           0       -1.575349    0.363179   -1.388931
     16          6           0       -1.878199    2.833188    2.520133
     17          1           0       -2.019581    3.907443    2.546828
     18          6           0       -2.327587   -3.685364    0.491856
     19          1           0       -3.238335   -4.239055    0.689140
     20          6           0       -1.603038    1.692015   -1.924852
     21          6           0        2.371865   -2.262481   -0.467578
     22          1           0        3.328477   -1.771938   -0.615886
     23          6           0        1.575297    0.362747    1.389041
     24          6           0        1.603085    1.691419    1.925365
     25          6           0        2.327628   -3.685172   -0.493076
     26          1           0        3.238402   -4.238789   -0.690450
     27          6           0       -1.719852    2.219331    1.263413
     28          6           0       -1.486742    0.111881    2.441077
     29          1           0       -1.316280   -0.953757    2.445186
     30          6           0        1.679090   -0.699368    2.340820
     31          1           0        1.695075   -1.722451    1.997837
     32          6           0       -1.857438    2.122082    3.701420
     33          1           0       -1.991876    2.630219    4.648574
     34          6           0       -2.371843   -2.262669    0.466813
     35          1           0       -3.328463   -1.772187    0.615287
     36          6           0       -1.678155    1.872421   -3.321454
     37          1           0       -1.678452    2.887280   -3.701880
     38          6           0        1.552385    0.798883   -1.194636
     39          6           0       -1.682337    3.136441    0.154546
     40          1           0       -1.723350    4.180561    0.449352
     41          6           0       -1.777738    0.819442   -4.201144
     42          1           0       -1.855624    1.000680   -5.266263
     43          6           0       -1.601454    2.916602   -1.171948
     44          1           0       -1.577954    3.809860   -1.788967
     45          6           0        1.677957    1.871396    3.322033
     46          1           0        1.678300    2.886139    3.702768
     47          6           0       -1.640750    0.743490    3.654778
     48          1           0       -1.587410    0.164203    4.568536
     49          6           0       -1.679365   -0.698636   -2.341015
     50          1           0       -1.695356   -1.721822   -1.998340
     51          6           0        1.777251    0.818140    4.201425
     52          1           0        1.854947    0.999050    5.266614
     53          6           0        1.878413    2.833857   -2.519331
     54          1           0        2.019997    3.908093   -2.545722
     55          6           0        1.794836   -0.484995    3.693449
     56          1           0        1.895354   -1.332561    4.360328
     57          6           0        1.857412    2.123105   -3.700825
     58          1           0        1.991840    2.631499   -4.647842
     59          6           0        1.682959    3.136429   -0.153618
     60          1           0        1.724361    4.180625   -0.448100
     61          6           0       -1.795325   -0.483844   -3.693560
     62          1           0       -1.896014   -1.331202   -4.360679
     63          6           0        1.601942    2.916223    1.172810
     64          1           0        1.578713    3.809311    1.790085
     65          6           0        1.486578    0.112577   -2.441036
     66          1           0        1.316020   -0.953045   -2.445441
     67          6           0        1.640558    0.744522   -3.654564
     68          1           0        1.587081    0.165505   -4.568484
 ---------------------------------------------------------------------

 Alpha  occ. eigenvalues --  -10.70930 -10.70929 -10.68588 -10.68587 -10.68565
 Alpha  occ. eigenvalues --  -10.68565 -10.68234 -10.68234 -10.68171 -10.68170
 Alpha  occ. eigenvalues --  -10.67114 -10.67113 -10.66623 -10.66623 -10.66519
 Alpha  occ. eigenvalues --  -10.66519 -10.66369 -10.65982 -10.65982 -10.65801
 Alpha  occ. eigenvalues --  -10.65801 -10.65763 -10.65763 -10.65724 -10.65724
 Alpha  occ. eigenvalues --  -10.65691 -10.65691 -10.65634 -10.65633 -10.65598
 Alpha  occ. eigenvalues --  -10.65598 -10.65485 -10.65485 -10.65469 -10.65469
 Alpha  occ. eigenvalues --  -10.65302 -10.65302 -10.64961 -10.64960 -10.63945
 Alpha  occ. eigenvalues --  -10.63846 -10.63441  -1.12253  -1.10220  -1.10177
 Alpha  occ. eigenvalues --   -1.08391  -1.07788  -1.05597  -1.04891  -1.02566
 Alpha  occ. eigenvalues --   -1.02109  -1.00926  -1.00416  -0.97955  -0.97633
 Alpha  occ. eigenvalues --   -0.96829  -0.96279  -0.94989  -0.93517  -0.93483
 Alpha  occ. eigenvalues --   -0.92835  -0.91838  -0.87393  -0.87350  -0.84990
 Alpha  occ. eigenvalues --   -0.84771  -0.83096  -0.81464  -0.81119  -0.79821
 Alpha  occ. eigenvalues --   -0.79714  -0.79533  -0.77491  -0.76387  -0.76189
 Alpha  occ. eigenvalues --   -0.75820  -0.75419  -0.73506  -0.70234  -0.69681
 Alpha  occ. eigenvalues --   -0.69009  -0.68543  -0.67753  -0.67647  -0.66940
 Alpha  occ. eigenvalues --   -0.66862  -0.65710  -0.65370  -0.65196  -0.64781
 Alpha  occ. eigenvalues --   -0.63274  -0.62888  -0.62382  -0.62149  -0.61083
 Alpha  occ. eigenvalues --   -0.61035  -0.60629  -0.60486  -0.60107  -0.60066
 Alpha  occ. eigenvalues --   -0.59577  -0.58906  -0.58810  -0.58136  -0.57792
 Alpha  occ. eigenvalues --   -0.57584  -0.56856  -0.55953  -0.55667  -0.55649
 Alpha  occ. eigenvalues --   -0.54969  -0.53976  -0.53087  -0.52845  -0.52651
 Alpha  occ. eigenvalues --   -0.52405  -0.52354  -0.52274  -0.51039  -0.50985
 Alpha  occ. eigenvalues --   -0.50974  -0.50900  -0.50080  -0.49518  -0.49410
 Alpha  occ. eigenvalues --   -0.48827  -0.48520  -0.47849  -0.45068  -0.44690
 Alpha  occ. eigenvalues --   -0.44105  -0.42807  -0.40480  -0.40429  -0.39289
 Alpha  occ. eigenvalues --   -0.38167  -0.37559  -0.37129  -0.31372
 Alpha virt. eigenvalues --   -0.20409  -0.15938  -0.15546  -0.14340  -0.10628
 Alpha virt. eigenvalues --   -0.09967  -0.08907  -0.08543  -0.08364  -0.07566
 Alpha virt. eigenvalues --   -0.07518  -0.07444  -0.06652  -0.06362  -0.06140

  Beta  occ. eigenvalues --  -10.70788 -10.70787 -10.68628 -10.68628 -10.68598
  Beta  occ. eigenvalues --  -10.68598 -10.68193 -10.68193 -10.68127 -10.68127
  Beta  occ. eigenvalues --  -10.67132 -10.67131 -10.66617 -10.66617 -10.66509
  Beta  occ. eigenvalues --  -10.66509 -10.66341 -10.65944 -10.65944 -10.65770
  Beta  occ. eigenvalues --  -10.65770 -10.65731 -10.65731 -10.65696 -10.65696
  Beta  occ. eigenvalues --  -10.65690 -10.65690 -10.65652 -10.65651 -10.65615
  Beta  occ. eigenvalues --  -10.65615 -10.65480 -10.65480 -10.65471 -10.65471
  Beta  occ. eigenvalues --  -10.65318 -10.65318 -10.64958 -10.64958 -10.63944
  Beta  occ. eigenvalues --  -10.63845 -10.63438  -1.12095  -1.10090  -1.10061
  Beta  occ. eigenvalues --   -1.08279  -1.07690  -1.05434  -1.04762  -1.02446
  Beta  occ. eigenvalues --   -1.02005  -1.00760  -1.00245  -0.97853  -0.97540
  Beta  occ. eigenvalues --   -0.96712  -0.96179  -0.94940  -0.93453  -0.93387
  Beta  occ. eigenvalues --   -0.92758  -0.91752  -0.87105  -0.86992  -0.84922
  Beta  occ. eigenvalues --   -0.84709  -0.83017  -0.81371  -0.81008  -0.79738
  Beta  occ. eigenvalues --   -0.79645  -0.79462  -0.77380  -0.76233  -0.76041
  Beta  occ. eigenvalues --   -0.75658  -0.75384  -0.73385  -0.70119  -0.69537
  Beta  occ. eigenvalues --   -0.68875  -0.68433  -0.67701  -0.67600  -0.66818
  Beta  occ. eigenvalues --   -0.66758  -0.65631  -0.65227  -0.65057  -0.64682
  Beta  occ. eigenvalues --   -0.63055  -0.62842  -0.62302  -0.62071  -0.60901
  Beta  occ. eigenvalues --   -0.60762  -0.60462  -0.60347  -0.60046  -0.60013
  Beta  occ. eigenvalues --   -0.59451  -0.58772  -0.58725  -0.58064  -0.57584
  Beta  occ. eigenvalues --   -0.57326  -0.56653  -0.55630  -0.55618  -0.55594
  Beta  occ. eigenvalues --   -0.54949  -0.53656  -0.52977  -0.52760  -0.52578
  Beta  occ. eigenvalues --   -0.52332  -0.52248  -0.52209  -0.50958  -0.50905
  Beta  occ. eigenvalues --   -0.50814  -0.50496  -0.49537  -0.49284  -0.48893
  Beta  occ. eigenvalues --   -0.48529  -0.48464  -0.47535  -0.44496  -0.44149
  Beta  occ. eigenvalues --   -0.43380  -0.42463  -0.40363  -0.40095  -0.38691
  Beta  occ. eigenvalues --   -0.38006  -0.37313  -0.37010
  Beta virt. eigenvalues --   -0.21564  -0.17836  -0.15716  -0.15499  -0.14387
  Beta virt. eigenvalues --   -0.10345  -0.09568  -0.08533  -0.08452  -0.08169
  Beta virt. eigenvalues --   -0.07582  -0.07572  -0.07205  -0.06634  -0.06299

 Mulliken charges and spin densities:
               1          2
     1  C    0.009503   0.353845
     2  C    0.009219   0.353819
     3  C    0.246232   0.007488
     4  C    0.184095  -0.001859
     5  C    0.161666   0.005680
     6  C   -0.023796  -0.030716
     7  C   -0.303633   0.000980
     8  H    0.176210  -0.000036
     9  C    0.182487  -0.053611
    10  C   -0.303581   0.000982
    11  H    0.176211  -0.000036
    12  C    0.161742   0.005688
    13  C   -0.023729  -0.030705
    14  C    0.447015   0.037962
    15  C    0.412952  -0.070313
    16  C   -0.375368  -0.032527
    17  H    0.165801   0.001089
    18  C   -0.517367   0.000198
    19  H    0.175941   0.000253
    20  C    0.223946   0.106110
    21  C   -0.089765   0.019466
    22  H    0.174730  -0.000210
    23  C    0.412973  -0.070308
    24  C    0.224083   0.106096
    25  C   -0.517441   0.000199
    26  H    0.175942   0.000253
    27  C    0.446739   0.037926
    28  C    0.005888   0.077291
    29  H    0.207148  -0.003775
    30  C   -0.269021   0.031835
    31  H    0.226419  -0.002450
    32  C   -0.393511   0.056267
    33  H    0.182165  -0.003132
    34  C   -0.089744   0.019474
    35  H    0.174739  -0.000210
    36  C   -0.028427  -0.056662
    37  H    0.161882   0.001504
    38  C    0.182406  -0.053640
    39  C   -0.293282   0.061241
    40  H    0.166127  -0.003442
    41  C   -0.249159   0.063500
    42  H    0.180694  -0.003194
    43  C   -0.322307   0.012113
    44  H    0.160513  -0.000739
    45  C   -0.028201  -0.056649
    46  H    0.161876   0.001504
    47  C   -0.098395  -0.037656
    48  H    0.168771  -0.000178
    49  C   -0.269087   0.031853
    50  H    0.226415  -0.002450
    51  C   -0.249021   0.063525
    52  H    0.180693  -0.003196
    53  C   -0.375170  -0.032528
    54  H    0.165801   0.001089
    55  C   -0.516772  -0.034672
    56  H    0.175719   0.001157
    57  C   -0.393372   0.056274
    58  H    0.182166  -0.003133
    59  C   -0.293826   0.061222
    60  H    0.166149  -0.003440
    61  C   -0.516363  -0.034660
    62  H    0.175717   0.001157
    63  C   -0.322653   0.012130
    64  H    0.160536  -0.000740
    65  C    0.006157   0.077289
    66  H    0.207158  -0.003775
    67  C   -0.098401  -0.037645
    68  H    0.168768  -0.000178
 Sum of Mulliken charges =   1.00000   1.00000

 Dipole moment (field-independent basis, Debye):
    X=              0.0002    Y=              2.4348    Z=              0.0004  Tot=              2.4348
 Quadrupole moment (field-independent basis, Debye-Ang):
   XX=           -222.5536   YY=           -175.0500   ZZ=           -176.1826
   XY=              0.0038   XZ=             -1.3624   YZ=              0.0000

 Normal termination of Gaussian 16 at Fri Nov  8 23:37:40 2024.
