 Gaussian 16, Revision A.03,
 Gaussian 16:  ES64L-G16RevA.03 25-Dec-2016

 ---------------------------------------------------
 #p UM062X/6-311+G** force int=superfine pop=saveNBO
 ---------------------------------------------------

 -------------------
 Title Card Required
 -------------------
 Symbolic Z-matrix:
 Charge =  0 Multiplicity = 1

                         Standard orientation:
 ---------------------------------------------------------------------
 Center     Atomic      Atomic             Coordinates (Angstroms)
 Number     Number       Type             X           Y           Z
 ---------------------------------------------------------------------
      1          8           0        0.000000    0.000000    1.118562
      2          8           0        0.000000    0.000000   -1.118562
 ---------------------------------------------------------------------

 SCF Done:  E(UM062X) =  -149.922843708     A.U. after   10 cycles

 Unable to determine electronic state:  partially filled degenerate orbitals.
 Alpha  occ. eigenvalues --  -19.83957 -19.83950  -1.12846  -1.08661  -0.50101
 Alpha  occ. eigenvalues --   -0.47741  -0.47247  -0.43160
 Alpha virt. eigenvalues --   -0.28403  -0.23593   0.10276   0.12815   0.15064
 Alpha virt. eigenvalues --    0.15175   0.20400   0.20712   0.21556   0.31704
 Alpha virt. eigenvalues --    0.94610   0.96311   0.97320   1.05400   1.06214

  Beta  occ. eigenvalues --  -19.83957 -19.83950  -1.12846  -1.08661  -0.50101
  Beta  occ. eigenvalues --   -0.47741  -0.47247  -0.43160
  Beta virt. eigenvalues --   -0.28403  -0.23593   0.10276   0.12815   0.15064
  Beta virt. eigenvalues --    0.15175   0.20400   0.20712   0.21556   0.31704
  Beta virt. eigenvalues --    0.94610   0.96311   0.97320   1.05400   1.06214

 Mulliken charges and spin densities:
               1          2
     1  O   -0.000000   0.000000
     2  O   -0.000000   0.000000
 Sum of Mulliken charges =  -0.00000   0.00000

 Dipole moment (field-independent basis, Debye):
    X=             -0.0000    Y=              0.0000    Z=             -0.0000  Tot=              0.0000
 Quadrupole moment (field-independent basis, Debye-Ang):
   XX=            -11.9150   YY=            -10.1633   ZZ=             -9.2362
   XY=              0.0000   XZ=             -0.0000   YZ=              0.0000

 Summary of Natural Population Analysis:

                                       Natural Population
                Natural  -----------------------------------------------
    Atom  No    Charge         Core      Valence    Rydberg      Total
 -----------------------------------------------------------------------
      O    1    0.00000      1.00000     2.99919    0.00081     4.00000
      O    2    0.00000      1.00000     2.99919    0.00081     4.00000
 =======================================================================
   * Total *    0.00000      2.00000     5.99838    0.00163     8.00000

 Normal termination of Gaussian 16 at Mon Apr 21 19:48:22 2025.
