 Gaussian 16, Revision A.03,
 Gaussian 16:  ES64L-G16RevA.03 25-Dec-2016

 --------------------------------------------
 #p opt UM062X/6-311+G** nosymm int=superfine
 --------------------------------------------

 -------------------
 Title Card Required
 -------------------
 Symbolic Z-matrix:
 Charge =  1 Multiplicity = 2

 SCF Done:  E(UM062X) =  -582.148728722     A.U. after   11 cycles
 SCF Done:  E(UM062X) =  -582.149285890     A.U. after    9 cycles
 SCF Done:  E(UM062X) =  -582.149372787     A.U. after    8 cycles
 Optimization completed.
    -- Stationary point found.

                          Input orientation:
 ---------------------------------------------------------------------
 Center     Atomic      Atomic             Coordinates (Angstroms)
 Number     Number       Type             X           Y           Z
 ---------------------------------------------------------------------
      1         14           0       -2.001292    0.000000    0.000000
      2         14           0        2.001292    0.000000    0.000000
      3          1           0        2.137013   -1.458516   -0.000002
      4          1           0       -2.136615   -0.729146    1.263220
      5          1           0        2.137125    0.729293   -1.263080
      6          1           0        2.136429    0.729236    1.263189
      7          1           0       -2.137038    1.458513   -0.000115
      8          1           0       -2.136913   -0.729388   -1.263048
 ---------------------------------------------------------------------

 Alpha  occ. eigenvalues --  -67.23108 -67.23108  -5.77933  -5.77931  -4.09611
 Alpha  occ. eigenvalues --   -4.09611  -4.08805  -4.08805  -4.08805  -4.08805
 Alpha  occ. eigenvalues --   -0.81876  -0.81072  -0.62051  -0.62051  -0.61792
 Alpha  occ. eigenvalues --   -0.61791  -0.43261
 Alpha virt. eigenvalues --   -0.28644  -0.13099  -0.12008  -0.10378  -0.10377
 Alpha virt. eigenvalues --   -0.09920  -0.09101  -0.09101  -0.07826  -0.07806
 Alpha virt. eigenvalues --   -0.07806  -0.06320  -0.06319  -0.04418   0.00811

  Beta  occ. eigenvalues --  -67.22848 -67.22848  -5.77857  -5.77854  -4.08998
  Beta  occ. eigenvalues --   -4.08997  -4.08716  -4.08716  -4.08716  -4.08716
  Beta  occ. eigenvalues --   -0.80005  -0.79537  -0.61879  -0.61879  -0.61622
  Beta  occ. eigenvalues --   -0.61622
  Beta virt. eigenvalues --   -0.30540  -0.22457  -0.14396  -0.12613  -0.12612
  Beta virt. eigenvalues --   -0.11016  -0.10527  -0.09537  -0.09536  -0.07360
  Beta virt. eigenvalues --   -0.07360  -0.07012  -0.06011  -0.06011  -0.04955

 Mulliken charges and spin densities:
               1          2
     1  Si   0.496747   0.549293
     2  Si   0.496747   0.549293
     3  H    0.001078  -0.016448
     4  H    0.001084  -0.016423
     5  H    0.001096  -0.016424
     6  H    0.001080  -0.016421
     7  H    0.001079  -0.016448
     8  H    0.001091  -0.016423
 Sum of Mulliken charges =   1.00000   1.00000

 Dipole moment (field-independent basis, Debye):
    X=              0.0000    Y=             -0.0000    Z=              0.0000  Tot=              0.0000
 Quadrupole moment (field-independent basis, Debye-Ang):
   XX=             -1.2575   YY=            -26.1310   ZZ=            -26.1308
   XY=              0.0003   XZ=              0.0001   YZ=              0.0000

 Normal termination of Gaussian 16 at Mon Apr 21 20:15:58 2025.
