 Gaussian 16, Revision A.03,
 Gaussian 16:  ES64L-G16RevA.03 25-Dec-2016

 --------------------------------------------
 #p opt UM062X/6-311+G** nosymm int=superfine
 --------------------------------------------

 -------------------
 Title Card Required
 -------------------
 Symbolic Z-matrix:
 Charge =  0 Multiplicity = 1

 SCF Done:  E(UM062X) =  -78.3286177874     A.U. after    8 cycles
 SCF Done:  E(UM062X) =  -78.3286294558     A.U. after    6 cycles
 SCF Done:  E(UM062X) =  -78.3286338055     A.U. after    7 cycles
 Optimization completed.
    -- Stationary point found.

                          Input orientation:
 ---------------------------------------------------------------------
 Center     Atomic      Atomic             Coordinates (Angstroms)
 Number     Number       Type             X           Y           Z
 ---------------------------------------------------------------------
      1          6           0       -1.085595    0.000000    0.000000
      2          6           0        1.085595    0.000000    0.000000
      3          1           0       -1.531412   -0.981223   -0.000000
      4          1           0       -1.531411    0.981217   -0.000000
      5          1           0        1.531412    0.981223   -0.000000
      6          1           0        1.531411   -0.981217   -0.000000
 ---------------------------------------------------------------------

 Alpha  occ. eigenvalues --  -10.61795 -10.61785  -0.76835  -0.72246  -0.53123
 Alpha  occ. eigenvalues --   -0.50826  -0.35847  -0.25269
 Alpha virt. eigenvalues --   -0.07922  -0.00307   0.03364   0.05370   0.07102
 Alpha virt. eigenvalues --    0.07209   0.09255   0.09975   0.11294   0.15065
 Alpha virt. eigenvalues --    0.16371   0.19998   0.21385   0.27781   0.39346

  Beta  occ. eigenvalues --  -10.61795 -10.61785  -0.76835  -0.72246  -0.53123
  Beta  occ. eigenvalues --   -0.50826  -0.35847  -0.25269
  Beta virt. eigenvalues --   -0.07922  -0.00307   0.03364   0.05370   0.07102
  Beta virt. eigenvalues --    0.07209   0.09255   0.09975   0.11294   0.15065
  Beta virt. eigenvalues --    0.16371   0.19998   0.21385   0.27781   0.39346

 Mulliken charges and spin densities:
               1          2
     1  C   -0.368895   0.000000
     2  C   -0.368895  -0.000000
     3  H    0.184448  -0.000000
     4  H    0.184447  -0.000000
     5  H    0.184447   0.000000
     6  H    0.184447   0.000000
 Sum of Mulliken charges =  -0.00000   0.00000

 Dipole moment (field-independent basis, Debye):
    X=             -0.0000    Y=             -0.0000    Z=             -0.0000  Tot=              0.0000
 Quadrupole moment (field-independent basis, Debye-Ang):
   XX=            -10.9369   YY=            -12.0256   ZZ=            -18.4714
   XY=              0.0000   XZ=              0.0000   YZ=              0.0000

 Normal termination of Gaussian 16 at Tue Dec  3 11:04:18 2024.
