 Gaussian 16, Revision A.03,
 Gaussian 16:  ES64L-G16RevA.03 25-Dec-2016

 --------------------------------------------
 #p opt UM062X/6-311+G** nosymm int=superfine
 --------------------------------------------

 -------------------
 Title Card Required
 -------------------
 Symbolic Z-matrix:
 Charge =  1 Multiplicity = 3

 SCF Done:  E(UM062X) =  -289.597039138     A.U. after   11 cycles
 SCF Done:  E(UM062X) =  -289.597410197     A.U. after    9 cycles
 SCF Done:  E(UM062X) =  -289.597421546     A.U. after    8 cycles
 Optimization completed.
    -- Stationary point found.

                          Input orientation:
 ---------------------------------------------------------------------
 Center     Atomic      Atomic             Coordinates (Angstroms)
 Number     Number       Type             X           Y           Z
 ---------------------------------------------------------------------
      1         14           0       -1.095416    0.018184    0.000000
      2          1           0       -1.681959   -1.392813    0.000000
 ---------------------------------------------------------------------

 Alpha  occ. eigenvalues --  -67.38402  -5.92221  -4.23609  -4.23279  -4.23241
 Alpha  occ. eigenvalues --   -0.87884  -0.66832  -0.52007
 Alpha virt. eigenvalues --   -0.36472  -0.18704  -0.13895  -0.11124  -0.10461
 Alpha virt. eigenvalues --   -0.10007   0.10075   0.12047   0.12171   0.15543
 Alpha virt. eigenvalues --    0.19042   0.25319   0.25576   0.27894   0.28142

  Beta  occ. eigenvalues --  -67.37183  -5.91402  -4.22895  -4.21941  -4.21332
  Beta  occ. eigenvalues --   -0.79049
  Beta virt. eigenvalues --   -0.44062  -0.34494  -0.31733  -0.18307  -0.13838
  Beta virt. eigenvalues --   -0.08009  -0.07176  -0.05091   0.07539   0.08652
  Beta virt. eigenvalues --    0.09146   0.14870   0.17240   0.29846   0.31511

 Mulliken charges and spin densities:
               1          2
     1  Si   0.865059   1.686224
     2  H    0.134941   0.313776
 Sum of Mulliken charges =   1.00000   2.00000

 Dipole moment (field-independent basis, Debye):
    X=             -5.4926    Y=             -0.4687    Z=              0.0000  Tot=              5.5126
 Quadrupole moment (field-independent basis, Debye-Ang):
   XX=             -1.9509   YY=             -8.0023   ZZ=            -11.8714
   XY=              0.6283   XZ=             -0.0000   YZ=              0.0000

 Normal termination of Gaussian 16 at Wed Apr 16 09:13:59 2025.
