 Gaussian 16, Revision A.03,
 Gaussian 16:  ES64L-G16RevA.03 25-Dec-2016

 --------------------------------------------
 #p opt UM062X/6-311+G** nosymm int=superfine
 --------------------------------------------

 -------------------
 Title Card Required
 -------------------
 Symbolic Z-matrix:
 Charge =  0 Multiplicity = 1

 SCF Done:  E(UM062X) =  -79.7877439526     A.U. after    8 cycles
 SCF Done:  E(UM062X) =  -79.7902388451     A.U. after    8 cycles
 SCF Done:  E(UM062X) =  -79.7902679651     A.U. after    7 cycles
 Optimization completed.
    -- Stationary point found.

                          Input orientation:
 ---------------------------------------------------------------------
 Center     Atomic      Atomic             Coordinates (Angstroms)
 Number     Number       Type             X           Y           Z
 ---------------------------------------------------------------------
      1          6           0       -0.710099    0.000000    0.000000
      2          6           0        0.710171    0.000000    0.000000
      3          1           0        1.129668   -0.874785    0.506208
      4          1           0       -1.129582   -0.875785   -0.504494
      5          1           0        1.129655    0.875786    0.504491
      6          1           0        1.129683   -0.000973   -1.010692
      7          1           0       -1.129595    0.874783   -0.506211
      8          1           0       -1.129612    0.000971    1.010691
 ---------------------------------------------------------------------

 Alpha  occ. eigenvalues --  -10.51480 -10.51417  -0.87088  -0.69407  -0.51134
 Alpha  occ. eigenvalues --   -0.51133  -0.45135  -0.39045  -0.39045
 Alpha virt. eigenvalues --    0.02158   0.04165   0.05354   0.05354   0.08826
 Alpha virt. eigenvalues --    0.08834   0.08834   0.14057   0.18988   0.18988
 Alpha virt. eigenvalues --    0.20659   0.20659   0.24108   0.27814   0.32482

  Beta  occ. eigenvalues --  -10.51480 -10.51417  -0.87088  -0.69407  -0.51134
  Beta  occ. eigenvalues --   -0.51133  -0.45135  -0.39045  -0.39045
  Beta virt. eigenvalues --    0.02158   0.04165   0.05354   0.05354   0.08826
  Beta virt. eigenvalues --    0.08834   0.08834   0.14057   0.18988   0.18988
  Beta virt. eigenvalues --    0.20659   0.20659   0.24108   0.27814   0.32482

 Mulliken charges and spin densities:
               1          2
     1  C   -0.459429   0.000000
     2  C   -0.459429  -0.000000
     3  H    0.153143   0.000000
     4  H    0.153143  -0.000000
     5  H    0.153143   0.000000
     6  H    0.153143  -0.000000
     7  H    0.153143  -0.000000
     8  H    0.153143  -0.000000
 Sum of Mulliken charges =  -0.00000  -0.00000

 Dipole moment (field-independent basis, Debye):
    X=             -0.0000    Y=             -0.0000    Z=             -0.0000  Tot=              0.0000
 Quadrupole moment (field-independent basis, Debye-Ang):
   XX=            -15.6322   YY=            -14.9679   ZZ=            -14.9678
   XY=             -0.0000   XZ=             -0.0000   YZ=             -0.0001

 Normal termination of Gaussian 16 at Tue Nov 19 11:51:14 2024.
