 Gaussian 16, Revision A.03,
 Gaussian 16:  ES64L-G16RevA.03 25-Dec-2016

 ---------------------------------------
 #p UM062X/6-311+G** force int=superfine
 ---------------------------------------

 -------------------
 Title Card Required
 -------------------
 Symbolic Z-matrix:
 Charge =  0 Multiplicity = 1

                         Standard orientation:
 ---------------------------------------------------------------------
 Center     Atomic      Atomic             Coordinates (Angstroms)
 Number     Number       Type             X           Y           Z
 ---------------------------------------------------------------------
      1          6           0       -1.190453   -0.031006   -0.193442
      2          6           0        1.190453    0.031005    0.193442
      3          1           0        1.563911   -0.490635   -0.678133
      4          1           0       -1.269413    0.496513   -1.135097
      5          1           0        1.269416   -0.496512    1.135098
      6          1           0        1.375470    1.096782    0.226946
      7          1           0       -1.563911    0.490636    0.678133
      8          1           0       -1.375475   -1.096780   -0.226948
 ---------------------------------------------------------------------

 SCF Done:  E(UM062X) =  -79.6860800522     A.U. after    9 cycles

 The electronic state is 1-A.
 Alpha  occ. eigenvalues --  -10.55677 -10.55672  -0.77504  -0.74086  -0.48277
 Alpha  occ. eigenvalues --   -0.48277  -0.46243  -0.46243  -0.28540
 Alpha virt. eigenvalues --   -0.01407   0.02530   0.05531   0.05531   0.07074
 Alpha virt. eigenvalues --    0.08250   0.08250   0.10085   0.13010   0.18164
 Alpha virt. eigenvalues --    0.18164   0.22038   0.22038   0.24364   0.26185

  Beta  occ. eigenvalues --  -10.55677 -10.55672  -0.77504  -0.74086  -0.48277
  Beta  occ. eigenvalues --   -0.48277  -0.46243  -0.46243  -0.28540
  Beta virt. eigenvalues --   -0.01407   0.02530   0.05531   0.05531   0.07074
  Beta virt. eigenvalues --    0.08250   0.08250   0.10085   0.13010   0.18164
  Beta virt. eigenvalues --    0.18164   0.22038   0.22038   0.24364   0.26185

 Mulliken charges and spin densities:
               1          2
     1  C   -0.509947  -0.000000
     2  C   -0.509947   0.000000
     3  H    0.169982  -0.000000
     4  H    0.169983   0.000000
     5  H    0.169983  -0.000000
     6  H    0.169982  -0.000000
     7  H    0.169982   0.000000
     8  H    0.169982   0.000000
 Sum of Mulliken charges =  -0.00000  -0.00000

 Dipole moment (field-independent basis, Debye):
    X=              0.0000    Y=              0.0000    Z=             -0.0000  Tot=              0.0000
 Quadrupole moment (field-independent basis, Debye-Ang):
   XX=            -15.5136   YY=            -14.8083   ZZ=            -14.8265
   XY=             -0.0184   XZ=             -0.1147   YZ=             -0.0030

 Normal termination of Gaussian 16 at Tue Nov 19 12:57:04 2024.
