 Gaussian 16, Revision A.03,
 Gaussian 16:  ES64L-G16RevA.03 25-Dec-2016

 ---------------------------------------------------
 #p UM062X/6-311+G** force int=superfine pop=saveNBO
 ---------------------------------------------------

 -------------------
 Title Card Required
 -------------------
 Symbolic Z-matrix:
 Charge =  0 Multiplicity = 1

                         Standard orientation:
 ---------------------------------------------------------------------
 Center     Atomic      Atomic             Coordinates (Angstroms)
 Number     Number       Type             X           Y           Z
 ---------------------------------------------------------------------
      1          6           0        0.000000    0.000000   -1.257158
      2         16           0        0.000000    0.000000    0.471434
 ---------------------------------------------------------------------

 SCF Done:  E(UM062X) =  -436.168034348     A.U. after   11 cycles

 The electronic state is 1-SG.
 Alpha  occ. eigenvalues --  -89.95498 -10.69855  -8.31755  -6.23594  -6.23547
 Alpha  occ. eigenvalues --   -6.23547  -0.88030  -0.61010  -0.38944  -0.38519
 Alpha  occ. eigenvalues --   -0.38519
 Alpha virt. eigenvalues --   -0.07841  -0.07841   0.03039   0.03369   0.05196
 Alpha virt. eigenvalues --    0.05196   0.08988   0.10629   0.10629   0.12902
 Alpha virt. eigenvalues --    0.17066   0.34314   0.34314   0.35778   0.54305

  Beta  occ. eigenvalues --  -89.95498 -10.69855  -8.31755  -6.23594  -6.23547
  Beta  occ. eigenvalues --   -6.23547  -0.88030  -0.61010  -0.38944  -0.38519
  Beta  occ. eigenvalues --   -0.38519
  Beta virt. eigenvalues --   -0.07841  -0.07841   0.03039   0.03369   0.05196
  Beta virt. eigenvalues --    0.05196   0.08988   0.10629   0.10629   0.12902
  Beta virt. eigenvalues --    0.17066   0.34314   0.34314   0.35778   0.54305

 Mulliken charges and spin densities:
               1          2
     1  C   -0.060119   0.000000
     2  S    0.060119  -0.000000
 Sum of Mulliken charges =   0.00000  -0.00000

 Dipole moment (field-independent basis, Debye):
    X=              0.0000    Y=              0.0000    Z=              0.9370  Tot=              0.9370
 Quadrupole moment (field-independent basis, Debye-Ang):
   XX=            -18.9826   YY=            -18.9826   ZZ=            -20.3016
   XY=              0.0000   XZ=              0.0000   YZ=              0.0000

 Summary of Natural Population Analysis:

                                       Natural Population
                Natural  -----------------------------------------------
    Atom  No    Charge         Core      Valence    Rydberg      Total
 -----------------------------------------------------------------------
      C    1   -0.00907      0.99994     1.99610    0.01303     3.00907
      S    2    0.00907      4.99972     2.97375    0.01746     7.99093
 =======================================================================
   * Total *   -0.00000      5.99966     4.96985    0.03049    11.00000

 Normal termination of Gaussian 16 at Mon Apr 21 19:45:14 2025.
