 Gaussian 16, Revision A.03,
 Gaussian 16:  ES64L-G16RevA.03 25-Dec-2016

 --------------------------------------------
 #p opt UM062X/6-311+G** nosymm int=superfine
 --------------------------------------------

 -------------------
 Title Card Required
 -------------------
 Symbolic Z-matrix:
 Charge = -1 Multiplicity = 2

 SCF Done:  E(UM062X) =  -50.6062701355     A.U. after   14 cycles
 SCF Done:  E(UM062X) =  -50.6062710254     A.U. after    8 cycles
 Optimization completed.
    -- Stationary point found.

                          Input orientation:
 ---------------------------------------------------------------------
 Center     Atomic      Atomic             Coordinates (Angstroms)
 Number     Number       Type             X           Y           Z
 ---------------------------------------------------------------------
      1          5           0       -1.166404    0.000000    0.000000
      2          5           0        1.166404    0.000000    0.000000
      3          1           0       -2.349198   -0.000904    0.000000
      4          1           0        2.349198    0.000904   -0.000000
 ---------------------------------------------------------------------

 Alpha  occ. eigenvalues --   -6.92741  -6.92728  -0.37062  -0.35067  -0.16554
 Alpha  occ. eigenvalues --   -0.01625  -0.00428
 Alpha virt. eigenvalues --    0.13618   0.13893   0.14500   0.15264   0.17563
 Alpha virt. eigenvalues --    0.20233   0.21345   0.21498   0.22266   0.22983
 Alpha virt. eigenvalues --    0.26015   0.37404   0.40424   0.55347   0.58278

  Beta  occ. eigenvalues --   -6.92691  -6.92683  -0.35465  -0.34138  -0.15207
  Beta  occ. eigenvalues --    0.01187
  Beta virt. eigenvalues --    0.10384   0.13709   0.14006   0.14548   0.15271
  Beta virt. eigenvalues --    0.18455   0.19153   0.20447   0.20563   0.23568
  Beta virt. eigenvalues --    0.23957   0.24476   0.37573   0.40473   0.54715

 Mulliken charges and spin densities:
               1          2
     1  B   -0.523844   0.526598
     2  B   -0.523844   0.526598
     3  H    0.023844  -0.026598
     4  H    0.023844  -0.026598
 Sum of Mulliken charges =  -1.00000   1.00000

 Dipole moment (field-independent basis, Debye):
    X=              0.0000    Y=              0.0000    Z=             -0.0000  Tot=              0.0000
 Quadrupole moment (field-independent basis, Debye-Ang):
   XX=            -24.0113   YY=            -31.1531   ZZ=            -23.8615
   XY=              0.0088   XZ=             -0.0000   YZ=              0.0002

 Normal termination of Gaussian 16 at Mon Apr 21 17:30:50 2025.
