 Gaussian 16, Revision A.03,
 Gaussian 16:  ES64L-G16RevA.03 25-Dec-2016

 ---------------------------------------------------
 #p UM062X/6-311+G** force int=superfine pop=saveNBO
 ---------------------------------------------------

 -------------------
 Title Card Required
 -------------------
 Symbolic Z-matrix:
 Charge =  0 Multiplicity = 1

                         Standard orientation:
 ---------------------------------------------------------------------
 Center     Atomic      Atomic             Coordinates (Angstroms)
 Number     Number       Type             X           Y           Z
 ---------------------------------------------------------------------
      1         15           0        0.000000    0.000000    2.188495
      2         15           0        0.000000    0.000000   -2.188495
 ---------------------------------------------------------------------

 SCF Done:  E(UM062X) =  -682.261038423     A.U. after    9 cycles

 The electronic state is 1-SGG.
 Alpha  occ. eigenvalues --  -78.11740 -78.11740  -6.93428  -6.93428  -5.04724
 Alpha  occ. eigenvalues --   -5.04724  -5.04711  -5.04711  -5.04711  -5.04711
 Alpha  occ. eigenvalues --   -0.64080  -0.63308  -0.25941  -0.24691  -0.24691
 Alpha virt. eigenvalues --   -0.17948  -0.17948  -0.16525   0.02269   0.03379
 Alpha virt. eigenvalues --    0.04383   0.04383   0.06321   0.06321   0.06363
 Alpha virt. eigenvalues --    0.10146   0.28744   0.30000   0.30000   0.32603

  Beta  occ. eigenvalues --  -78.11740 -78.11740  -6.93428  -6.93428  -5.04724
  Beta  occ. eigenvalues --   -5.04724  -5.04711  -5.04711  -5.04711  -5.04711
  Beta  occ. eigenvalues --   -0.64080  -0.63308  -0.25941  -0.24691  -0.24691
  Beta virt. eigenvalues --   -0.17948  -0.17948  -0.16525   0.02269   0.03379
  Beta virt. eigenvalues --    0.04383   0.04383   0.06321   0.06321   0.06363
  Beta virt. eigenvalues --    0.10146   0.28744   0.30000   0.30000   0.32603

 Mulliken charges and spin densities:
               1          2
     1  P   -0.000000   0.000000
     2  P   -0.000000   0.000000
 Sum of Mulliken charges =  -0.00000   0.00000

 Dipole moment (field-independent basis, Debye):
    X=             -0.0000    Y=              0.0000    Z=             -0.0000  Tot=              0.0000
 Quadrupole moment (field-independent basis, Debye-Ang):
   XX=            -29.3953   YY=            -29.3953   ZZ=            -24.6698
   XY=              0.0000   XZ=             -0.0000   YZ=              0.0000

 Summary of Natural Population Analysis:

                                       Natural Population
                Natural  -----------------------------------------------
    Atom  No    Charge         Core      Valence    Rydberg      Total
 -----------------------------------------------------------------------
      P    1    0.00000      5.00000     2.49952    0.00048     7.50000
      P    2    0.00000      5.00000     2.49952    0.00048     7.50000
 =======================================================================
   * Total *    0.00000     10.00000     4.99904    0.00097    15.00000

 Normal termination of Gaussian 16 at Mon Apr 21 21:21:58 2025.
