 Gaussian 16, Revision A.03,
 Gaussian 16:  ES64L-G16RevA.03 25-Dec-2016

 --------------------------------------------
 #p opt UM062X/6-311+G** nosymm int=superfine
 --------------------------------------------

 -------------------
 Title Card Required
 -------------------
 Symbolic Z-matrix:
 Charge =  0 Multiplicity = 1

 SCF Done:  E(UM062X) =  -110.626465556     A.U. after   10 cycles
 SCF Done:  E(UM062X) =  -110.627049387     A.U. after    8 cycles
 SCF Done:  E(UM062X) =  -110.627062623     A.U. after    8 cycles
 SCF Done:  E(UM062X) =  -110.627081336     A.U. after    8 cycles
 Optimization completed.
    -- Stationary point found.

                          Input orientation:
 ---------------------------------------------------------------------
 Center     Atomic      Atomic             Coordinates (Angstroms)
 Number     Number       Type             X           Y           Z
 ---------------------------------------------------------------------
      1          7           0        0.000124    0.615428   -0.000000
      2          7           0       -0.000124   -0.615428   -0.000000
      3          1           0        0.988117    0.915862    0.000000
      4          1           0       -0.988117   -0.915862    0.000000
 ---------------------------------------------------------------------

 Alpha  occ. eigenvalues --  -14.81334 -14.81244  -1.16192  -0.79647  -0.56917
 Alpha  occ. eigenvalues --   -0.53509  -0.47358  -0.31731
 Alpha virt. eigenvalues --   -0.01375   0.06284   0.06653   0.09566   0.10846
 Alpha virt. eigenvalues --    0.13579   0.16047   0.17761   0.19321   0.22007
 Alpha virt. eigenvalues --    0.26517   0.44007   0.57375   0.59060   0.71910

  Beta  occ. eigenvalues --  -14.81334 -14.81244  -1.16192  -0.79647  -0.56917
  Beta  occ. eigenvalues --   -0.53509  -0.47358  -0.31731
  Beta virt. eigenvalues --   -0.01375   0.06284   0.06653   0.09566   0.10846
  Beta virt. eigenvalues --    0.13579   0.16047   0.17761   0.19321   0.22007
  Beta virt. eigenvalues --    0.26517   0.44007   0.57375   0.59060   0.71910

 Mulliken charges and spin densities:
               1          2
     1  N   -0.237470  -0.000000
     2  N   -0.237470   0.000000
     3  H    0.237470   0.000000
     4  H    0.237470  -0.000000
 Sum of Mulliken charges =  -0.00000  -0.00000

 Dipole moment (field-independent basis, Debye):
    X=              0.0000    Y=             -0.0000    Z=              0.0000  Tot=              0.0000
 Quadrupole moment (field-independent basis, Debye-Ang):
   XX=            -10.5859   YY=            -13.3950   ZZ=            -12.3507
   XY=              3.7073   XZ=             -0.0000   YZ=              0.0000

 Normal termination of Gaussian 16 at Wed Feb 26 13:04:42 2025.
