 Gaussian 16, Revision A.03,
 Gaussian 16:  ES64L-G16RevA.03 25-Dec-2016

 --------------------------------------------
 #p opt UM062X/6-311+G** nosymm int=superfine
 --------------------------------------------

 -------------------
 Title Card Required
 -------------------
 Symbolic Z-matrix:
 Charge =  0 Multiplicity = 1

 SCF Done:  E(UM062X) =  -80.3042373523     A.U. after   21 cycles
 SCF Done:  E(UM062X) =  -80.3052647113     A.U. after   18 cycles
 SCF Done:  E(UM062X) =  -80.3917508496     A.U. after   46 cycles
 SCF Done:  E(UM062X) =  -80.4096186297     A.U. after   14 cycles
 SCF Done:  E(UM062X) =  -80.4290073067     A.U. after   17 cycles
 SCF Done:  E(UM062X) =  -80.4207098375     A.U. after   14 cycles
 SCF Done:  E(UM062X) =  -80.4319827968     A.U. after   12 cycles
 SCF Done:  E(UM062X) =  -80.4423505754     A.U. after   16 cycles
 SCF Done:  E(UM062X) =  -80.4469963817     A.U. after   13 cycles
 SCF Done:  E(UM062X) =  -80.4533426020     A.U. after   20 cycles
 SCF Done:  E(UM062X) =  -80.4520755827     A.U. after   18 cycles
 SCF Done:  E(UM062X) =  -80.4557162251     A.U. after   23 cycles
 SCF Done:  E(UM062X) =  -80.4568079647     A.U. after   18 cycles
 SCF Done:  E(UM062X) =  -80.4597331536     A.U. after   15 cycles
 SCF Done:  E(UM062X) =  -80.4599670618     A.U. after   18 cycles
 SCF Done:  E(UM062X) =  -80.4603216772     A.U. after   15 cycles
 SCF Done:  E(UM062X) =  -80.4603679772     A.U. after   16 cycles
 SCF Done:  E(UM062X) =  -80.4603854753     A.U. after   13 cycles
 SCF Done:  E(UM062X) =  -80.4603868066     A.U. after   14 cycles
 Optimization completed.
    -- Stationary point found.

                          Input orientation:
 ---------------------------------------------------------------------
 Center     Atomic      Atomic             Coordinates (Angstroms)
 Number     Number       Type             X           Y           Z
 ---------------------------------------------------------------------
      1          5           0       -1.267064   -0.000315    0.000388
      2          7           0        1.267065    0.000261   -0.000344
      3          1           0       -2.431426   -0.202716   -0.251314
      4          1           0        1.246615    0.647326    0.808514
 ---------------------------------------------------------------------

 Alpha  occ. eigenvalues --  -14.77134  -7.19523  -0.84073  -0.60080  -0.40923
 Alpha  occ. eigenvalues --   -0.33364  -0.27833
 Alpha virt. eigenvalues --   -0.08669  -0.07695  -0.05109   0.00778   0.04078
 Alpha virt. eigenvalues --    0.04972   0.05188   0.12516   0.16157   0.17960
 Alpha virt. eigenvalues --    0.19153   0.21280   0.26084   0.35340   0.38787

  Beta  occ. eigenvalues --  -14.77134  -7.19523  -0.84073  -0.60080  -0.40923
  Beta  occ. eigenvalues --   -0.33364  -0.27833
  Beta virt. eigenvalues --   -0.08669  -0.07695  -0.05109   0.00778   0.04078
  Beta virt. eigenvalues --    0.04972   0.05188   0.12516   0.16157   0.17960
  Beta virt. eigenvalues --    0.19153   0.21280   0.26084   0.35340   0.38787

 Mulliken charges and spin densities:
               1          2
     1  B    0.102451  -0.000000
     2  N   -0.323818   0.000000
     3  H    0.048957  -0.000000
     4  H    0.172409  -0.000000
 Sum of Mulliken charges =   0.00000   0.00000

 Dipole moment (field-independent basis, Debye):
    X=             -4.2027    Y=              0.6572    Z=              0.8247  Tot=              4.3330
 Quadrupole moment (field-independent basis, Debye-Ang):
   XX=            -10.1236   YY=            -14.1770   ZZ=            -13.5691
   XY=              1.3961   XZ=              1.7424   YZ=              1.3535

 Normal termination of Gaussian 16 at Mon Apr 21 18:07:00 2025.
