 Gaussian 16, Revision A.03,
 Gaussian 16:  ES64L-G16RevA.03 25-Dec-2016

 -------------------------------------------------------------------
 #p opt UM062X/6-311+G** nosymm int=superfine SCF=NoVarAcc SCF=tight
 -------------------------------------------------------------------

 -------------------
 Title Card Required
 -------------------
 Symbolic Z-matrix:
 Charge =  1 Multiplicity = 2

 SCF Done:  E(UM062X) =  -77.8885157862     A.U. after   11 cycles
 SCF Done:  E(UM062X) =  -77.8925268299     A.U. after   10 cycles
 SCF Done:  E(UM062X) =  -77.8953367042     A.U. after   10 cycles
 SCF Done:  E(UM062X) =  -77.8953410836     A.U. after    9 cycles
 Optimization completed.
    -- Stationary point found.

                          Input orientation:
 ---------------------------------------------------------------------
 Center     Atomic      Atomic             Coordinates (Angstroms)
 Number     Number       Type             X           Y           Z
 ---------------------------------------------------------------------
      1          6           0       -5.106027    0.000000    0.000000
      2          6           0        5.106027    0.000000    0.000000
      3          1           0       -5.669261   -0.941293   -0.000000
      4          1           0       -5.669195    0.941331   -0.000000
      5          1           0        5.669261    0.941293   -0.000000
      6          1           0        5.669195   -0.941331   -0.000000
 ---------------------------------------------------------------------

 Alpha  occ. eigenvalues --  -10.85285 -10.85285  -0.96885  -0.96885  -0.71515
 Alpha  occ. eigenvalues --   -0.71515  -0.54301  -0.54301
 Alpha virt. eigenvalues --   -0.28569  -0.28569  -0.09361  -0.09359  -0.05090
 Alpha virt. eigenvalues --   -0.05067  -0.03408  -0.03298  -0.03274  -0.03057
 Alpha virt. eigenvalues --    0.03024   0.03028   0.03660   0.03683   0.30005

  Beta  occ. eigenvalues --  -10.84558 -10.84558  -0.94757  -0.94748  -0.70514
  Beta  occ. eigenvalues --   -0.70514  -0.40152
  Beta virt. eigenvalues --   -0.37184  -0.26976  -0.26974  -0.09661  -0.09659
  Beta virt. eigenvalues --   -0.05611  -0.05583  -0.03792  -0.03767  -0.03714
  Beta virt. eigenvalues --   -0.03341   0.03080   0.03081   0.04139   0.04167

 Mulliken charges and spin densities:
               1          2
     1  C    0.040163   0.486162
     2  C    0.040163   0.486162
     3  H    0.229918   0.006919
     4  H    0.229918   0.006919
     5  H    0.229918   0.006919
     6  H    0.229918   0.006919
 Sum of Mulliken charges =   1.00000   1.00000

 Dipole moment (field-independent basis, Debye):
    X=             -0.0000    Y=              0.0000    Z=             -0.0000  Tot=              0.0000
 Quadrupole moment (field-independent basis, Debye-Ang):
   XX=            146.2870   YY=             -9.5089   ZZ=            -10.6569
   XY=             -0.0004   XZ=              0.0000   YZ=              0.0000

 Normal termination of Gaussian 16 at Tue Dec  3 15:42:04 2024.
