 Gaussian 16, Revision A.03,
 Gaussian 16:  ES64L-G16RevA.03 25-Dec-2016

 --------------------------------------------
 #p opt UM062X/6-311+G** nosymm int=superfine
 --------------------------------------------

 -------------------
 Title Card Required
 -------------------
 Symbolic Z-matrix:
 Charge =  0 Multiplicity = 4

 SCF Done:  E(UM062X) =  -54.5846186855     A.U. after   10 cycles

 Alpha  occ. eigenvalues --  -14.84875  -0.91807  -0.43299  -0.43299  -0.43299
 Alpha virt. eigenvalues --    0.09907   0.12513   0.12513   0.12513   0.77917
 Alpha virt. eigenvalues --    0.77917   0.77917   0.93748   1.93548   1.93548
 Alpha virt. eigenvalues --    1.93548   1.93548   1.93548   3.76178   3.76178

  Beta  occ. eigenvalues --  -14.80763  -0.68957
  Beta virt. eigenvalues --   -0.06285  -0.06285  -0.06285   0.06578   0.15991
  Beta virt. eigenvalues --    0.15991   0.15991   0.81742   0.81742   0.81742
  Beta virt. eigenvalues --    0.98756   2.02948   2.02948   2.02948   2.02948

 Mulliken charges and spin densities:
               1          2
     1  N    0.000000   3.000000
 Sum of Mulliken charges =   0.00000   3.00000

 Dipole moment (field-independent basis, Debye):
    X=              0.0000    Y=              0.0000    Z=              0.0000  Tot=              0.0000
 Quadrupole moment (field-independent basis, Debye-Ang):
   XX=             -5.5448   YY=             -5.5448   ZZ=             -5.5448
   XY=              0.0000   XZ=              0.0000   YZ=              0.0000

 Optimization completed.
    -- Stationary point found.

                          Input orientation:
 ---------------------------------------------------------------------
 Center     Atomic      Atomic             Coordinates (Angstroms)
 Number     Number       Type             X           Y           Z
 ---------------------------------------------------------------------
      1          7           0        0.572395    0.000000    0.000000
 ---------------------------------------------------------------------

 Normal termination of Gaussian 16 at Wed Apr 16 08:18:46 2025.
