 Gaussian 16, Revision A.03,
 Gaussian 16:  ES64L-G16RevA.03 25-Dec-2016

 ---------------------------------------------------
 #p UM062X/6-311+G** force int=superfine pop=saveNBO
 ---------------------------------------------------

 -------------------
 Title Card Required
 -------------------
 Symbolic Z-matrix:
 Charge =  0 Multiplicity = 1

                         Standard orientation:
 ---------------------------------------------------------------------
 Center     Atomic      Atomic             Coordinates (Angstroms)
 Number     Number       Type             X           Y           Z
 ---------------------------------------------------------------------
      1         16           0        0.000000    0.000000    1.675200
      2         16           0        0.000000    0.000000   -1.675200
 ---------------------------------------------------------------------

 SCF Done:  E(UM062X) =  -796.084386911     A.U. after    9 cycles

 Unable to determine electronic state:  partially filled degenerate orbitals.
 Alpha  occ. eigenvalues --  -89.99248 -89.99248  -8.34956  -8.34956  -6.26991
 Alpha  occ. eigenvalues --   -6.26991  -6.26973  -6.26973  -6.26137  -6.26137
 Alpha  occ. eigenvalues --   -0.78914  -0.77033  -0.35366  -0.35099  -0.34088
 Alpha  occ. eigenvalues --   -0.32253
 Alpha virt. eigenvalues --   -0.22848  -0.19905   0.03076   0.03725   0.04881
 Alpha virt. eigenvalues --    0.05378   0.07186   0.07513   0.07645   0.13136
 Alpha virt. eigenvalues --    0.31764   0.32664   0.32686   0.35729   0.36374

  Beta  occ. eigenvalues --  -89.99248 -89.99248  -8.34956  -8.34956  -6.26991
  Beta  occ. eigenvalues --   -6.26991  -6.26973  -6.26973  -6.26137  -6.26137
  Beta  occ. eigenvalues --   -0.78914  -0.77033  -0.35366  -0.35099  -0.34088
  Beta  occ. eigenvalues --   -0.32253
  Beta virt. eigenvalues --   -0.22848  -0.19905   0.03076   0.03725   0.04881
  Beta virt. eigenvalues --    0.05378   0.07186   0.07513   0.07645   0.13136
  Beta virt. eigenvalues --    0.31764   0.32664   0.32686   0.35729   0.36374

 Mulliken charges and spin densities:
               1          2
     1  S    0.000000   0.000000
     2  S    0.000000   0.000000
 Sum of Mulliken charges =   0.00000   0.00000

 Dipole moment (field-independent basis, Debye):
    X=              0.0000    Y=             -0.0000    Z=             -0.0000  Tot=              0.0000
 Quadrupole moment (field-independent basis, Debye-Ang):
   XX=            -25.4112   YY=            -30.3403   ZZ=            -22.5337
   XY=              0.0000   XZ=             -0.0000   YZ=              0.0000

 Summary of Natural Population Analysis:

                                       Natural Population
                Natural  -----------------------------------------------
    Atom  No    Charge         Core      Valence    Rydberg      Total
 -----------------------------------------------------------------------
      S    1    0.00000      4.99999     2.99909    0.00091     8.00000
      S    2    0.00000      4.99999     2.99909    0.00091     8.00000
 =======================================================================
   * Total *    0.00000      9.99999     5.99819    0.00182    16.00000

 Normal termination of Gaussian 16 at Mon Apr 21 20:09:10 2025.
