 Gaussian 16, Revision A.03,
 Gaussian 16:  ES64L-G16RevA.03 25-Dec-2016

 ---------------------------------------------------
 #p UM062X/6-311+G** force int=superfine pop=saveNBO
 ---------------------------------------------------

 -------------------
 Title Card Required
 -------------------
 Symbolic Z-matrix:
 Charge =  0 Multiplicity = 1

                         Standard orientation:
 ---------------------------------------------------------------------
 Center     Atomic      Atomic             Coordinates (Angstroms)
 Number     Number       Type             X           Y           Z
 ---------------------------------------------------------------------
      1         16           0        0.000000    0.000000    1.000200
      2         16           0        0.000000    0.000000   -1.000200
 ---------------------------------------------------------------------

 SCF Done:  E(UM062X) =  -796.302606190     A.U. after    9 cycles

 Unable to determine electronic state:  partially filled degenerate orbitals.
 Alpha  occ. eigenvalues --  -89.96294 -89.96294  -8.32447  -8.32435  -6.24541
 Alpha  occ. eigenvalues --   -6.24537  -6.24454  -6.24414  -6.23679  -6.23676
 Alpha  occ. eigenvalues --   -0.90384  -0.69928  -0.44510  -0.40692  -0.40113
 Alpha  occ. eigenvalues --   -0.28110
 Alpha virt. eigenvalues --   -0.15544  -0.00533   0.03186   0.04471   0.05324
 Alpha virt. eigenvalues --    0.06016   0.06964   0.07753   0.08340   0.14976
 Alpha virt. eigenvalues --    0.28966   0.33144   0.33665   0.34428   0.36473

  Beta  occ. eigenvalues --  -89.96294 -89.96294  -8.32447  -8.32435  -6.24541
  Beta  occ. eigenvalues --   -6.24537  -6.24454  -6.24414  -6.23679  -6.23676
  Beta  occ. eigenvalues --   -0.90384  -0.69928  -0.44510  -0.40692  -0.40113
  Beta  occ. eigenvalues --   -0.28110
  Beta virt. eigenvalues --   -0.15544  -0.00533   0.03186   0.04471   0.05324
  Beta virt. eigenvalues --    0.06016   0.06964   0.07753   0.08340   0.14976
  Beta virt. eigenvalues --    0.28966   0.33144   0.33665   0.34428   0.36473

 Mulliken charges and spin densities:
               1          2
     1  S    0.000000  -0.000000
     2  S    0.000000  -0.000000
 Sum of Mulliken charges =   0.00000  -0.00000

 Dipole moment (field-independent basis, Debye):
    X=              0.0000    Y=              0.0000    Z=              0.0000  Tot=              0.0000
 Quadrupole moment (field-independent basis, Debye-Ang):
   XX=            -23.9263   YY=            -29.0736   ZZ=            -24.9231
   XY=              0.0000   XZ=              0.0000   YZ=              0.0000

 Summary of Natural Population Analysis:

                                       Natural Population
                Natural  -----------------------------------------------
    Atom  No    Charge         Core      Valence    Rydberg      Total
 -----------------------------------------------------------------------
      S    1   -0.00000      4.99985     2.98118    0.01896     8.00000
      S    2   -0.00000      4.99985     2.98118    0.01896     8.00000
 =======================================================================
   * Total *   -0.00000      9.99971     5.96236    0.03793    16.00000

 Normal termination of Gaussian 16 at Mon Apr 21 20:08:43 2025.
