 Gaussian 16, Revision A.03,
 Gaussian 16:  ES64L-G16RevA.03 25-Dec-2016

 --------------------------------------------
 #p opt UM062X/6-311+G** nosymm int=superfine
 --------------------------------------------

 -------------------
 Title Card Required
 -------------------
 Symbolic Z-matrix:
 Charge =  0 Multiplicity = 1

 SCF Done:  E(UM062X) =  -582.461351489     A.U. after    9 cycles
 SCF Done:  E(UM062X) =  -582.462355768     A.U. after    8 cycles
 SCF Done:  E(UM062X) =  -582.462507379     A.U. after    8 cycles
 Optimization completed.
    -- Stationary point found.

                          Input orientation:
 ---------------------------------------------------------------------
 Center     Atomic      Atomic             Coordinates (Angstroms)
 Number     Number       Type             X           Y           Z
 ---------------------------------------------------------------------
      1         14           0       -1.619819    0.000000    0.000000
      2         14           0        1.619819    0.000000    0.000000
      3          1           0        2.070256   -1.406541   -0.000056
      4          1           0       -2.070305   -0.703121    1.218180
      5          1           0        2.070396    0.703291   -1.218048
      6          1           0        2.070310    0.703173    1.218149
      7          1           0       -2.070259    1.406540   -0.000116
      8          1           0       -2.070399   -0.703344   -1.218017
 ---------------------------------------------------------------------

 Alpha  occ. eigenvalues --  -67.00990 -67.00990  -5.55824  -5.55824  -3.87021
 Alpha  occ. eigenvalues --   -3.87019  -3.86878  -3.86878  -3.86878  -3.86878
 Alpha  occ. eigenvalues --   -0.61302  -0.59649  -0.41598  -0.41598  -0.40996
 Alpha  occ. eigenvalues --   -0.40996  -0.27127
 Alpha virt. eigenvalues --   -0.04254   0.02135   0.02946   0.02946   0.04017
 Alpha virt. eigenvalues --    0.04842   0.05495   0.05496   0.06768   0.06768
 Alpha virt. eigenvalues --    0.07848   0.09149   0.09149   0.14773   0.17205

  Beta  occ. eigenvalues --  -67.00990 -67.00990  -5.55824  -5.55824  -3.87021
  Beta  occ. eigenvalues --   -3.87019  -3.86878  -3.86878  -3.86878  -3.86878
  Beta  occ. eigenvalues --   -0.61302  -0.59649  -0.41598  -0.41598  -0.40996
  Beta  occ. eigenvalues --   -0.40996  -0.27127
  Beta virt. eigenvalues --   -0.04254   0.02135   0.02946   0.02946   0.04017
  Beta virt. eigenvalues --    0.04842   0.05495   0.05496   0.06768   0.06768
  Beta virt. eigenvalues --    0.07848   0.09149   0.09149   0.14773   0.17205

 Mulliken charges and spin densities:
               1          2
     1  Si   0.289822  -0.000000
     2  Si   0.289822  -0.000000
     3  H   -0.096609  -0.000000
     4  H   -0.096607   0.000000
     5  H   -0.096607   0.000000
     6  H   -0.096607   0.000000
     7  H   -0.096609  -0.000000
     8  H   -0.096607   0.000000
 Sum of Mulliken charges =  -0.00000  -0.00000

 Dipole moment (field-independent basis, Debye):
    X=              0.0000    Y=              0.0000    Z=             -0.0000  Tot=              0.0000
 Quadrupole moment (field-independent basis, Debye-Ang):
   XX=            -30.5179   YY=            -31.7689   ZZ=            -31.7688
   XY=              0.0003   XZ=              0.0000   YZ=              0.0000

 Normal termination of Gaussian 16 at Mon Apr 21 20:18:56 2025.
