 Gaussian 16, Revision A.03,
 Gaussian 16:  ES64L-G16RevA.03 25-Dec-2016

 --------------------------------------------
 #p opt UM062X/6-311+G** nosymm int=superfine
 --------------------------------------------

 -------------------
 Title Card Required
 -------------------
 Symbolic Z-matrix:
 Charge =  0 Multiplicity = 1

 SCF Done:  E(UM062X) =  -51.9844573322     A.U. after    8 cycles
 SCF Done:  E(UM062X) =  -51.9845722569     A.U. after    7 cycles
 SCF Done:  E(UM062X) =  -51.9847874543     A.U. after    8 cycles
 SCF Done:  E(UM062X) =  -51.9718740526     A.U. after    9 cycles
 SCF Done:  E(UM062X) =  -51.9849128478     A.U. after    9 cycles
 SCF Done:  E(UM062X) =  -51.9840335525     A.U. after   10 cycles
 SCF Done:  E(UM062X) =  -51.9703791798     A.U. after   11 cycles
 SCF Done:  E(UM062X) =  -51.9657321589     A.U. after   11 cycles
 SCF Done:  E(UM062X) =  -51.9729228478     A.U. after   10 cycles
 SCF Done:  E(UM062X) =  -51.9776319202     A.U. after   10 cycles
 SCF Done:  E(UM062X) =  -51.9643261929     A.U. after   12 cycles
 SCF Done:  E(UM062X) =  -51.9943901803     A.U. after   10 cycles
 SCF Done:  E(UM062X) =  -51.9953506880     A.U. after   10 cycles
 SCF Done:  E(UM062X) =  -51.9957395286     A.U. after   10 cycles
 SCF Done:  E(UM062X) =  -51.9953572305     A.U. after    9 cycles
 SCF Done:  E(UM062X) =  -51.9924994131     A.U. after   10 cycles
 SCF Done:  E(UM062X) =  -51.9922628461     A.U. after   10 cycles
 SCF Done:  E(UM062X) =  -51.9959208957     A.U. after    8 cycles
 SCF Done:  E(UM062X) =  -51.9961067818     A.U. after    9 cycles
 SCF Done:  E(UM062X) =  -51.9961072413     A.U. after    6 cycles
 Optimization completed.
    -- Stationary point found.

                          Input orientation:
 ---------------------------------------------------------------------
 Center     Atomic      Atomic             Coordinates (Angstroms)
 Number     Number       Type             X           Y           Z
 ---------------------------------------------------------------------
      1          5           0       -0.945607    0.000000    0.000000
      2          5           0        0.945607    0.000000    0.000000
      3          1           0       -1.552894   -0.725358   -0.723544
      4          1           0        1.552965    0.724283   -0.724553
      5          1           0       -1.552148    0.725385    0.724184
      6          1           0        1.552058   -0.724516    0.725133
 ---------------------------------------------------------------------

 Alpha  occ. eigenvalues --   -7.05981  -7.05954  -0.60055  -0.53644  -0.41412
 Alpha  occ. eigenvalues --   -0.41409  -0.33600
 Alpha virt. eigenvalues --   -0.03230  -0.03223   0.02300   0.03075   0.04768
 Alpha virt. eigenvalues --    0.04769   0.06765   0.07718   0.07720   0.11262
 Alpha virt. eigenvalues --    0.15497   0.20463   0.20607   0.22391   0.22397

  Beta  occ. eigenvalues --   -7.05981  -7.05954  -0.60055  -0.53644  -0.41412
  Beta  occ. eigenvalues --   -0.41409  -0.33600
  Beta virt. eigenvalues --   -0.03230  -0.03223   0.02300   0.03075   0.04768
  Beta virt. eigenvalues --    0.04769   0.06765   0.07718   0.07720   0.11262
  Beta virt. eigenvalues --    0.15497   0.20463   0.20607   0.22391   0.22397

 Mulliken charges and spin densities:
               1          2
     1  B   -0.032287   0.000000
     2  B   -0.032286  -0.000000
     3  H    0.016149  -0.000000
     4  H    0.016150  -0.000000
     5  H    0.016137   0.000000
     6  H    0.016136  -0.000000
 Sum of Mulliken charges =  -0.00000  -0.00000

 Dipole moment (field-independent basis, Debye):
    X=              0.0000    Y=              0.0001    Z=             -0.0003  Tot=              0.0003
 Quadrupole moment (field-independent basis, Debye-Ang):
   XX=            -16.8536   YY=            -14.8690   ZZ=            -14.8665
   XY=             -0.0000   XZ=              0.0001   YZ=             -0.0000

 Normal termination of Gaussian 16 at Mon Apr 21 17:04:58 2025.
