 Gaussian 16, Revision A.03,
 Gaussian 16:  ES64L-G16RevA.03 25-Dec-2016

 ---------------------------------------------------
 #p UM062X/6-311+G** force int=superfine pop=saveNBO
 ---------------------------------------------------

 -------------------
 Title Card Required
 -------------------
 Symbolic Z-matrix:
 Charge =  0 Multiplicity = 1

                         Standard orientation:
 ---------------------------------------------------------------------
 Center     Atomic      Atomic             Coordinates (Angstroms)
 Number     Number       Type             X           Y           Z
 ---------------------------------------------------------------------
      1          6           0        0.000000    0.000000   -1.802612
      2         16           0        0.000000    0.000000    0.675980
 ---------------------------------------------------------------------

 SCF Done:  E(UM062X) =  -435.949729990     A.U. after   15 cycles

 The electronic state is 1-SG.
 Alpha  occ. eigenvalues --  -89.95137 -10.80437  -8.30813  -6.22890  -6.22440
 Alpha  occ. eigenvalues --   -6.22440  -0.76832  -0.67928  -0.36266  -0.32119
 Alpha  occ. eigenvalues --   -0.32119
 Alpha virt. eigenvalues --   -0.15827  -0.15827  -0.09694   0.03578   0.05345
 Alpha virt. eigenvalues --    0.06046   0.06046   0.08686   0.09119   0.09119
 Alpha virt. eigenvalues --    0.15414   0.34864   0.35811   0.35811   0.53058

  Beta  occ. eigenvalues --  -89.95137 -10.80437  -8.30813  -6.22890  -6.22440
  Beta  occ. eigenvalues --   -6.22440  -0.76832  -0.67928  -0.36266  -0.32119
  Beta  occ. eigenvalues --   -0.32119
  Beta virt. eigenvalues --   -0.15827  -0.15827  -0.09694   0.03578   0.05345
  Beta virt. eigenvalues --    0.06046   0.06046   0.08686   0.09119   0.09119
  Beta virt. eigenvalues --    0.15414   0.34864   0.35811   0.35811   0.53058

 Mulliken charges and spin densities:
               1          2
     1  C    0.154411  -0.000000
     2  S   -0.154411   0.000000
 Sum of Mulliken charges =  -0.00000  -0.00000

 Dipole moment (field-independent basis, Debye):
    X=              0.0000    Y=              0.0000    Z=             -1.6638  Tot=              1.6638
 Quadrupole moment (field-independent basis, Debye-Ang):
   XX=            -20.5565   YY=            -20.5565   ZZ=            -16.5520
   XY=              0.0000   XZ=              0.0000   YZ=              0.0000

 Summary of Natural Population Analysis:

                                       Natural Population
                Natural  -----------------------------------------------
    Atom  No    Charge         Core      Valence    Rydberg      Total
 -----------------------------------------------------------------------
      C    1    0.12962      1.00000     1.86859    0.00179     2.87038
      S    2   -0.12962      4.99998     3.12794    0.00169     8.12962
 =======================================================================
   * Total *   -0.00000      5.99998     4.99653    0.00349    11.00000

 Normal termination of Gaussian 16 at Mon Apr 21 19:46:32 2025.
