 Gaussian 16, Revision A.03,
 Gaussian 16:  ES64L-G16RevA.03 25-Dec-2016

 ---------------------------------------------------------
 #p opt UM062X/6-311+G** nosymm int=superfine SCF=NoVarAcc
 ---------------------------------------------------------

 -------------------
 Title Card Required
 -------------------
 Symbolic Z-matrix:
 Charge =  0 Multiplicity = 1

 SCF Done:  E(UM062X) =  -78.2039118131     A.U. after    9 cycles
 SCF Done:  E(UM062X) =  -78.2205890569     A.U. after    9 cycles
 SCF Done:  E(UM062X) =  -78.2353340720     A.U. after    8 cycles
 SCF Done:  E(UM062X) =  -78.2356369136     A.U. after    8 cycles
 SCF Done:  E(UM062X) =  -78.2356381144     A.U. after    7 cycles
 Optimization completed.
    -- Stationary point found.

                          Input orientation:
 ---------------------------------------------------------------------
 Center     Atomic      Atomic             Coordinates (Angstroms)
 Number     Number       Type             X           Y           Z
 ---------------------------------------------------------------------
      1          6           0       -2.535595    0.000000    0.000000
      2          6           0        2.535595    0.000000    0.000000
      3          1           0       -3.238000   -0.859874   -0.000000
      4          1           0       -3.237972    0.859898    0.000000
      5          1           0        3.238000    0.859874   -0.000000
      6          1           0        3.237972   -0.859898    0.000000
 ---------------------------------------------------------------------

 Alpha  occ. eigenvalues --  -10.59986 -10.59986  -0.74932  -0.74929  -0.46726
 Alpha  occ. eigenvalues --   -0.46721  -0.30687  -0.30330
 Alpha virt. eigenvalues --   -0.07513  -0.07383   0.02537   0.02768   0.06294
 Alpha virt. eigenvalues --    0.08346   0.08385   0.10132   0.10424   0.15550
 Alpha virt. eigenvalues --    0.17463   0.19858   0.19926   0.20287   0.44324

  Beta  occ. eigenvalues --  -10.59986 -10.59986  -0.74932  -0.74929  -0.46726
  Beta  occ. eigenvalues --   -0.46721  -0.30687  -0.30330
  Beta virt. eigenvalues --   -0.07513  -0.07383   0.02537   0.02768   0.06294
  Beta virt. eigenvalues --    0.08346   0.08385   0.10132   0.10424   0.15550
  Beta virt. eigenvalues --    0.17463   0.19858   0.19926   0.20287   0.44324

 Mulliken charges and spin densities:
               1          2
     1  C   -0.244138   0.000000
     2  C   -0.244138  -0.000000
     3  H    0.122069  -0.000000
     4  H    0.122069  -0.000000
     5  H    0.122069   0.000000
     6  H    0.122069   0.000000
 Sum of Mulliken charges =  -0.00000  -0.00000

 Dipole moment (field-independent basis, Debye):
    X=              0.0000    Y=              0.0000    Z=              0.0000  Tot=              0.0000
 Quadrupole moment (field-independent basis, Debye-Ang):
   XX=              2.0756   YY=            -14.5436   ZZ=            -12.8818
   XY=             -0.0001   XZ=              0.0000   YZ=             -0.0000

 Normal termination of Gaussian 16 at Tue Dec  3 17:39:20 2024.
