 Gaussian 16, Revision A.03,
 Gaussian 16:  ES64L-G16RevA.03 25-Dec-2016

 --------------------------------------------
 #p opt UM062X/6-311+G** nosymm int=superfine
 --------------------------------------------

 -------------------
 Title Card Required
 -------------------
 Symbolic Z-matrix:
 Charge =  0 Multiplicity = 1

 SCF Done:  E(UM062X) =  -474.363214939     A.U. after   23 cycles
 SCF Done:  E(UM062X) =  -474.363790197     A.U. after   18 cycles
 SCF Done:  E(UM062X) =  -474.365034037     A.U. after   24 cycles
 SCF Done:  E(UM062X) =  -474.365631823     A.U. after   27 cycles
 SCF Done:  E(UM062X) =  -474.365813152     A.U. after   32 cycles
 SCF Done:  E(UM062X) =  -474.365882653     A.U. after   24 cycles
 SCF Done:  E(UM062X) =  -474.365897009     A.U. after   18 cycles
 SCF Done:  E(UM062X) =  -474.365904792     A.U. after   19 cycles
 SCF Done:  E(UM062X) =  -474.365918603     A.U. after   39 cycles
 SCF Done:  E(UM062X) =  -474.365917927     A.U. after   20 cycles
 SCF Done:  E(UM062X) =  -474.365921922     A.U. after   20 cycles
 SCF Done:  E(UM062X) =  -474.365923569     A.U. after   28 cycles
 SCF Done:  E(UM062X) =  -474.365923422     A.U. after   17 cycles
 SCF Done:  E(UM062X) =  -474.365924035     A.U. after   22 cycles
 SCF Done:  E(UM062X) =  -474.365924055     A.U. after   16 cycles
 Optimization completed.
    -- Stationary point found.

                          Input orientation:
 ---------------------------------------------------------------------
 Center     Atomic      Atomic             Coordinates (Angstroms)
 Number     Number       Type             X           Y           Z
 ---------------------------------------------------------------------
      1          8           0       -1.839392    0.000000    0.000000
      2         16           0        1.839392    0.000000    0.000000
      3          1           0       -1.804326   -0.613981   -0.750341
      4          1           0        1.579439    0.883386    0.983308
 ---------------------------------------------------------------------

 Alpha  occ. eigenvalues --  -89.97815 -19.67162  -8.33994  -6.26202  -6.25841
 Alpha  occ. eigenvalues --   -6.25272  -1.08400  -0.83917  -0.52488  -0.49784
 Alpha  occ. eigenvalues --   -0.39711  -0.35826  -0.33475
 Alpha virt. eigenvalues --   -0.23122   0.01565   0.03854   0.04699   0.05361
 Alpha virt. eigenvalues --    0.06750   0.13090   0.19206   0.19823   0.21078
 Alpha virt. eigenvalues --    0.24865   0.30774   0.33964   0.34636   0.38971

  Beta  occ. eigenvalues --  -89.97815 -19.67162  -8.33994  -6.26202  -6.25841
  Beta  occ. eigenvalues --   -6.25272  -1.08400  -0.83917  -0.52488  -0.49784
  Beta  occ. eigenvalues --   -0.39711  -0.35826  -0.33475
  Beta virt. eigenvalues --   -0.23122   0.01565   0.03854   0.04699   0.05361
  Beta virt. eigenvalues --    0.06750   0.13090   0.19206   0.19823   0.21078
  Beta virt. eigenvalues --    0.24865   0.30774   0.33964   0.34636   0.38971

 Mulliken charges and spin densities:
               1          2
     1  O   -0.388505   0.000000
     2  S    0.034688  -0.000000
     3  H    0.245370  -0.000000
     4  H    0.108448   0.000000
 Sum of Mulliken charges =  -0.00000  -0.00000

 Dipole moment (field-independent basis, Debye):
    X=              2.3727    Y=             -0.3186    Z=             -0.4767  Tot=              2.4410
 Quadrupole moment (field-independent basis, Debye-Ang):
   XX=            -18.6203   YY=            -19.9096   ZZ=            -18.9768
   XY=              3.5044   XZ=              4.1299   YZ=              3.2684

 Normal termination of Gaussian 16 at Thu May 15 13:29:44 2025.
