 Gaussian 16, Revision A.03,
 Gaussian 16:  ES64L-G16RevA.03 25-Dec-2016

 --------------------------------------------
 #p opt UM062X/6-311+G** nosymm int=superfine
 --------------------------------------------

 -------------------
 Title Card Required
 -------------------
 Symbolic Z-matrix:
 Charge =  0 Multiplicity = 1

 SCF Done:  E(UM062X) =  -582.392326345     A.U. after   10 cycles
 SCF Done:  E(UM062X) =  -582.394463143     A.U. after    9 cycles
 SCF Done:  E(UM062X) =  -582.394989694     A.U. after    8 cycles
 Optimization completed.
    -- Stationary point found.

                          Input orientation:
 ---------------------------------------------------------------------
 Center     Atomic      Atomic             Coordinates (Angstroms)
 Number     Number       Type             X           Y           Z
 ---------------------------------------------------------------------
      1         14           0       -2.119819    0.000000    0.000000
      2         14           0        2.119819    0.000000    0.000000
      3          1           0        2.530609   -1.417178   -0.000056
      4          1           0       -2.530578   -0.708489    1.227389
      5          1           0        2.530704    0.708661   -1.227247
      6          1           0        2.530587    0.708542    1.227355
      7          1           0       -2.530612    1.417177   -0.000112
      8          1           0       -2.530710   -0.708715   -1.227214
 ---------------------------------------------------------------------

 Alpha  occ. eigenvalues --  -67.01807 -67.01807  -5.56679  -5.56678  -3.87909
 Alpha  occ. eigenvalues --   -3.87908  -3.87682  -3.87681  -3.87681  -3.87681
 Alpha  occ. eigenvalues --   -0.61112  -0.60690  -0.41996  -0.41995  -0.41884
 Alpha  occ. eigenvalues --   -0.41883  -0.22724
 Alpha virt. eigenvalues --   -0.09693   0.02112   0.02921   0.02921   0.03348
 Alpha virt. eigenvalues --    0.05162   0.05162   0.05805   0.06868   0.07389
 Alpha virt. eigenvalues --    0.07389   0.08791   0.08792   0.12573   0.16163

  Beta  occ. eigenvalues --  -67.01807 -67.01807  -5.56679  -5.56678  -3.87909
  Beta  occ. eigenvalues --   -3.87908  -3.87682  -3.87681  -3.87681  -3.87681
  Beta  occ. eigenvalues --   -0.61112  -0.60690  -0.41996  -0.41995  -0.41884
  Beta  occ. eigenvalues --   -0.41883  -0.22724
  Beta virt. eigenvalues --   -0.09693   0.02112   0.02921   0.02921   0.03348
  Beta virt. eigenvalues --    0.05162   0.05162   0.05805   0.06868   0.07389
  Beta virt. eigenvalues --    0.07389   0.08791   0.08792   0.12573   0.16163

 Mulliken charges and spin densities:
               1          2
     1  Si   0.271060   0.000000
     2  Si   0.271061  -0.000000
     3  H   -0.090352  -0.000000
     4  H   -0.090354  -0.000000
     5  H   -0.090354   0.000000
     6  H   -0.090354   0.000000
     7  H   -0.090352   0.000000
     8  H   -0.090354   0.000000
 Sum of Mulliken charges =  -0.00000   0.00000

 Dipole moment (field-independent basis, Debye):
    X=              0.0000    Y=             -0.0000    Z=              0.0000  Tot=              0.0000
 Quadrupole moment (field-independent basis, Debye-Ang):
   XX=            -28.4319   YY=            -32.1020   ZZ=            -32.1020
   XY=             -0.0002   XZ=              0.0000   YZ=              0.0000

 Normal termination of Gaussian 16 at Mon Apr 21 20:19:55 2025.
