 Gaussian 16, Revision A.03,
 Gaussian 16:  ES64L-G16RevA.03 25-Dec-2016

 --------------------------------------------
 #p opt UM062X/6-311+G** nosymm int=superfine
 --------------------------------------------

 -------------------
 Title Card Required
 -------------------
 Symbolic Z-matrix:
 Charge =  0 Multiplicity = 1

 SCF Done:  E(UM062X) =  -581.142353705     A.U. after    9 cycles
 SCF Done:  E(UM062X) =  -581.162071438     A.U. after    8 cycles
 SCF Done:  E(UM062X) =  -581.174138468     A.U. after    8 cycles
 SCF Done:  E(UM062X) =  -581.174158427     A.U. after    7 cycles
 Optimization completed.
    -- Stationary point found.

                          Input orientation:
 ---------------------------------------------------------------------
 Center     Atomic      Atomic             Coordinates (Angstroms)
 Number     Number       Type             X           Y           Z
 ---------------------------------------------------------------------
      1         14           0       -2.312518    0.000000    0.000000
      2         14           0        2.312518    0.000000    0.000000
      3          1           0       -3.376129   -1.083955    0.000060
      4          1           0        3.376129    1.083955   -0.000526
      5          1           0       -3.376134    1.083951    0.000282
      6          1           0        3.376134   -1.083950    0.000867
 ---------------------------------------------------------------------

 Alpha  occ. eigenvalues --  -67.01257 -67.01257  -5.55980  -5.55980  -3.87226
 Alpha  occ. eigenvalues --   -3.87226  -3.86684  -3.86684  -3.86543  -3.86543
 Alpha  occ. eigenvalues --   -0.57244  -0.57163  -0.37813  -0.37783  -0.29129
 Alpha  occ. eigenvalues --   -0.27130
 Alpha virt. eigenvalues --   -0.08182  -0.07515   0.02084   0.02416   0.03032
 Alpha virt. eigenvalues --    0.04564   0.05674   0.06078   0.06311   0.07160
 Alpha virt. eigenvalues --    0.08213   0.09110   0.11363   0.14054   0.29049

  Beta  occ. eigenvalues --  -67.01257 -67.01257  -5.55980  -5.55980  -3.87226
  Beta  occ. eigenvalues --   -3.87226  -3.86684  -3.86684  -3.86543  -3.86543
  Beta  occ. eigenvalues --   -0.57244  -0.57163  -0.37813  -0.37783  -0.29129
  Beta  occ. eigenvalues --   -0.27130
  Beta virt. eigenvalues --   -0.08182  -0.07515   0.02084   0.02416   0.03032
  Beta virt. eigenvalues --    0.04564   0.05674   0.06078   0.06311   0.07160
  Beta virt. eigenvalues --    0.08213   0.09110   0.11363   0.14054   0.29049

 Mulliken charges and spin densities:
               1          2
     1  Si   0.322315  -0.000000
     2  Si   0.322315  -0.000000
     3  H   -0.161158   0.000000
     4  H   -0.161158   0.000000
     5  H   -0.161158   0.000000
     6  H   -0.161158   0.000000
 Sum of Mulliken charges =  -0.00000   0.00000

 Dipole moment (field-independent basis, Debye):
    X=              0.0000    Y=              0.0000    Z=              0.0001  Tot=              0.0001
 Quadrupole moment (field-independent basis, Debye-Ang):
   XX=            -35.5439   YY=            -32.7410   ZZ=            -24.3862
   XY=             -0.0000   XZ=              0.0000   YZ=              0.0023

 Normal termination of Gaussian 16 at Mon Apr 21 20:35:30 2025.
