 Gaussian 16, Revision A.03,
 Gaussian 16:  ES64L-G16RevA.03 25-Dec-2016

 --------------------------------------------
 #p opt UM062X/6-311+G** nosymm int=superfine
 --------------------------------------------

 -------------------
 Title Card Required
 -------------------
 Symbolic Z-matrix:
 Charge =  0 Multiplicity = 1

 SCF Done:  E(UM062X) =  -95.5762570884     A.U. after   18 cycles
 SCF Done:  E(UM062X) =  -95.5912553746     A.U. after   13 cycles
 SCF Done:  E(UM062X) =  -95.6018164898     A.U. after   14 cycles
 SCF Done:  E(UM062X) =  -95.6022610400     A.U. after   13 cycles
 SCF Done:  E(UM062X) =  -95.6027788827     A.U. after   13 cycles
 SCF Done:  E(UM062X) =  -95.6030845004     A.U. after   13 cycles
 SCF Done:  E(UM062X) =  -95.6031793615     A.U. after   13 cycles
 SCF Done:  E(UM062X) =  -95.6032029008     A.U. after   12 cycles
 SCF Done:  E(UM062X) =  -95.6032048264     A.U. after   10 cycles
 SCF Done:  E(UM062X) =  -95.6032053871     A.U. after   10 cycles
 SCF Done:  E(UM062X) =  -95.6032070197     A.U. after   10 cycles
 SCF Done:  E(UM062X) =  -95.6032081989     A.U. after   11 cycles
 SCF Done:  E(UM062X) =  -95.6032085763     A.U. after   11 cycles
 Optimization completed.
    -- Stationary point found.

                          Input orientation:
 ---------------------------------------------------------------------
 Center     Atomic      Atomic             Coordinates (Angstroms)
 Number     Number       Type             X           Y           Z
 ---------------------------------------------------------------------
      1          6           0       -1.980542    0.000000    0.000000
      2          7           0        1.980542    0.000000    0.000000
      3          1           0        1.922419   -1.014786    0.139461
      4          1           0       -1.956357    1.080148    0.012503
      5          1           0        1.923195    0.369963    0.955230
      6          1           0       -1.956606   -0.526116   -0.943444
      7          1           0       -2.101626   -0.549186    0.922834
 ---------------------------------------------------------------------

 Alpha  occ. eigenvalues --  -14.74746 -10.62157  -0.90158  -0.81120  -0.53303
 Alpha  occ. eigenvalues --   -0.53153  -0.50672  -0.35906  -0.24407
 Alpha virt. eigenvalues --   -0.14939   0.01748   0.04569   0.04873   0.07047
 Alpha virt. eigenvalues --    0.09934   0.12994   0.15818   0.16725   0.16738
 Alpha virt. eigenvalues --    0.17731   0.20425   0.22024   0.26604   0.41043

  Beta  occ. eigenvalues --  -14.74746 -10.62157  -0.90158  -0.81120  -0.53303
  Beta  occ. eigenvalues --   -0.53153  -0.50672  -0.35906  -0.24407
  Beta virt. eigenvalues --   -0.14939   0.01748   0.04569   0.04873   0.07047
  Beta virt. eigenvalues --    0.09934   0.12994   0.15818   0.16725   0.16738
  Beta virt. eigenvalues --    0.17731   0.20425   0.22024   0.26604   0.41043

 Mulliken charges and spin densities:
               1          2
     1  C   -0.427241  -0.000000
     2  N   -0.578103   0.000000
     3  H    0.209474  -0.000000
     4  H    0.198652   0.000000
     5  H    0.209480  -0.000000
     6  H    0.198690   0.000000
     7  H    0.189048   0.000000
 Sum of Mulliken charges =  -0.00000  -0.00000

 Dipole moment (field-independent basis, Debye):
    X=             -3.5370    Y=             -1.0039    Z=              1.7045  Tot=              4.0526
 Quadrupole moment (field-independent basis, Debye-Ang):
   XX=            -15.9062   YY=            -13.4618   ZZ=            -14.2684
   XY=             -2.0081   XZ=              3.4130   YZ=              0.7282

 Normal termination of Gaussian 16 at Mon Apr 21 18:18:56 2025.
