 Gaussian 16, Revision A.03,
 Gaussian 16:  ES64L-G16RevA.03 25-Dec-2016

 --------------------------------------------
 #p opt UM062X/6-311+G** nosymm int=superfine
 --------------------------------------------

 -------------------
 Title Card Required
 -------------------
 Symbolic Z-matrix:
 Charge =  0 Multiplicity = 3

 SCF Done:  E(UM062X) =  -50.4768126907     A.U. after   10 cycles
 SCF Done:  E(UM062X) =  -50.4777303713     A.U. after   10 cycles
 SCF Done:  E(UM062X) =  -50.4777375726     A.U. after   10 cycles
 Optimization completed.
    -- Stationary point found.

                          Input orientation:
 ---------------------------------------------------------------------
 Center     Atomic      Atomic             Coordinates (Angstroms)
 Number     Number       Type             X           Y           Z
 ---------------------------------------------------------------------
      1          5           0       -1.978410    0.000000    0.000000
      2          5           0        1.978410    0.000000    0.000000
      3          1           0       -3.183927   -0.000082   -0.000000
      4          1           0        3.183927    0.000082   -0.000000
 ---------------------------------------------------------------------

 Alpha  occ. eigenvalues --   -7.14439  -7.14439  -0.56912  -0.56740  -0.33442
 Alpha  occ. eigenvalues --   -0.30884  -0.17771
 Alpha virt. eigenvalues --   -0.10193  -0.06418  -0.05497   0.02694   0.02873
 Alpha virt. eigenvalues --    0.05694   0.06982   0.07107   0.07961   0.08109
 Alpha virt. eigenvalues --    0.11459   0.16571   0.22044   0.33186   0.39501

  Beta  occ. eigenvalues --   -7.13535  -7.13534  -0.53611  -0.53475  -0.23729
  Beta virt. eigenvalues --   -0.11646  -0.04538  -0.04024  -0.03198  -0.02659
  Beta virt. eigenvalues --    0.01876   0.02424   0.07039   0.07316   0.07930
  Beta virt. eigenvalues --    0.08047   0.08881   0.09592   0.16918   0.23401

 Mulliken charges and spin densities:
               1          2
     1  B   -0.061825   0.927432
     2  B   -0.061825   0.927432
     3  H    0.061825   0.072568
     4  H    0.061825   0.072568
 Sum of Mulliken charges =  -0.00000   2.00000

 Dipole moment (field-independent basis, Debye):
    X=             -0.0000    Y=             -0.0000    Z=             -0.0000  Tot=              0.0000
 Quadrupole moment (field-independent basis, Debye-Ang):
   XX=             -7.6248   YY=            -13.6811   ZZ=            -17.6849
   XY=              0.0000   XZ=             -0.0000   YZ=             -0.0012

 1\1\GINC-NODE06\FOpt\UM062X\6-311+G(d,p)\B2H2(3)\SZHAO\21-Apr-2025\0\\
 #p opt UM062X/6-311+G** nosymm int=superfine\\Title Card Required\\0,3
 \B,-1.97841047,0.,0.\B,1.97841047,0.,0.\H,-3.1839273292,-0.0000822503,
 -0.0000000013\H,3.1839273511,0.0000822483,-0.00000005\\Version=ES64L-G
 16RevA.03\HF=-50.4777376\S2=2.021717\S2-1=0.\S2A=2.000018\RMSD=2.259e-
 09\RMSF=4.372e-07\Dipole=0.,0.,0.\Quadrupole=3.9940705,-0.5087025,-3.4
 853681,0.0000152,0.,-0.0008835\PG=C*V [C*(H1B1B1H1)]\\@

 Normal termination of Gaussian 16 at Mon Apr 21 17:29:38 2025.
