 Gaussian 16, Revision A.03,
 Gaussian 16:  ES64L-G16RevA.03 25-Dec-2016

 --------------------------------------------
 #p opt UM062X/6-311+G** nosymm int=superfine
 --------------------------------------------

 -------------------
 Title Card Required
 -------------------
 Symbolic Z-matrix:
 Charge =  0 Multiplicity = 1

 SCF Done:  E(UM062X) =  -115.513078285     A.U. after   12 cycles
 SCF Done:  E(UM062X) =  -115.528615395     A.U. after   11 cycles
 SCF Done:  E(UM062X) =  -115.536045291     A.U. after   11 cycles
 SCF Done:  E(UM062X) =  -115.536145308     A.U. after    9 cycles
 SCF Done:  E(UM062X) =  -115.536197498     A.U. after   10 cycles
 SCF Done:  E(UM062X) =  -115.536203457     A.U. after   11 cycles
 SCF Done:  E(UM062X) =  -115.536204458     A.U. after    9 cycles
 SCF Done:  E(UM062X) =  -115.536205039     A.U. after    8 cycles
 SCF Done:  E(UM062X) =  -115.536205223     A.U. after    7 cycles
 Optimization completed.
    -- Stationary point found.

                          Input orientation:
 ---------------------------------------------------------------------
 Center     Atomic      Atomic             Coordinates (Angstroms)
 Number     Number       Type             X           Y           Z
 ---------------------------------------------------------------------
      1          6           0       -1.332203    0.000000    0.000000
      2          8           0        1.332203    0.000000    0.000000
      3          1           0        1.382696   -0.964208    0.000266
      4          1           0       -1.441962   -0.528957    0.936144
      5          1           0       -1.331060    1.080407   -0.000771
      6          1           0       -1.442015   -0.530297   -0.935379
 ---------------------------------------------------------------------

 Alpha  occ. eigenvalues --  -19.59816 -10.65602  -1.02074  -0.83121  -0.55191
 Alpha  occ. eigenvalues --   -0.54931  -0.46477  -0.33432  -0.31804
 Alpha virt. eigenvalues --   -0.12087   0.00796   0.04232   0.04696   0.06495
 Alpha virt. eigenvalues --    0.14268   0.15997   0.16240   0.20174   0.22894
 Alpha virt. eigenvalues --    0.23070   0.24550   0.31969   0.40063   0.40587

  Beta  occ. eigenvalues --  -19.59816 -10.65602  -1.02074  -0.83121  -0.55191
  Beta  occ. eigenvalues --   -0.54931  -0.46477  -0.33432  -0.31804
  Beta virt. eigenvalues --   -0.12087   0.00796   0.04232   0.04696   0.06495
  Beta virt. eigenvalues --    0.14268   0.15997   0.16240   0.20174   0.22894
  Beta virt. eigenvalues --    0.23070   0.24550   0.31969   0.40063   0.40587

 Mulliken charges and spin densities:
               1          2
     1  C   -0.291480   0.000021
     2  O   -0.554825  -0.000020
     3  H    0.216953   0.000000
     4  H    0.204074  -0.000001
     5  H    0.221218  -0.000001
     6  H    0.204060  -0.000001
 Sum of Mulliken charges =  -0.00000   0.00000

 Dipole moment (field-independent basis, Debye):
    X=             -4.6055    Y=             -1.5459    Z=              0.0004  Tot=              4.8580
 Quadrupole moment (field-independent basis, Debye-Ang):
   XX=            -13.2609   YY=            -11.4111   ZZ=            -13.8346
   XY=             -2.3651   XZ=              0.0006   YZ=             -0.0007

 Normal termination of Gaussian 16 at Mon Apr 21 18:38:24 2025.
