 Gaussian 16, Revision A.03,
 Gaussian 16:  ES64L-G16RevA.03 25-Dec-2016

 --------------------------------------------
 #p opt UM062X/6-311+G** nosymm int=superfine
 --------------------------------------------

 -------------------
 Title Card Required
 -------------------
 Symbolic Z-matrix:
 Charge =  0 Multiplicity = 3

 SCF Done:  E(UM062X) =  -50.4740661354     A.U. after   11 cycles
 SCF Done:  E(UM062X) =  -50.4749898911     A.U. after   12 cycles
 SCF Done:  E(UM062X) =  -50.4749972597     A.U. after    9 cycles
 Optimization completed.
    -- Stationary point found.

                          Input orientation:
 ---------------------------------------------------------------------
 Center     Atomic      Atomic             Coordinates (Angstroms)
 Number     Number       Type             X           Y           Z
 ---------------------------------------------------------------------
      1          5           0       -2.028410    0.000000    0.000000
      2          5           0        2.028410    0.000000    0.000000
      3          1           0       -3.234054   -0.000082    0.000000
      4          1           0        3.234054    0.000082   -0.000000
 ---------------------------------------------------------------------

 Alpha  occ. eigenvalues --   -7.14464  -7.14464  -0.56926  -0.56775  -0.33340
 Alpha  occ. eigenvalues --   -0.31111  -0.17688
 Alpha virt. eigenvalues --   -0.10347  -0.06399  -0.05573   0.02704   0.02886
 Alpha virt. eigenvalues --    0.05642   0.06933   0.07096   0.07876   0.08097
 Alpha virt. eigenvalues --    0.11391   0.16378   0.21948   0.33107   0.39588

  Beta  occ. eigenvalues --   -7.13563  -7.13562  -0.53628  -0.53503  -0.23514
  Beta virt. eigenvalues --   -0.11983  -0.04511  -0.03995  -0.03283  -0.02734
  Beta virt. eigenvalues --    0.01897   0.02413   0.07042   0.07328   0.08002
  Beta virt. eigenvalues --    0.08031   0.08852   0.09600   0.16564   0.23304

 Mulliken charges and spin densities:
               1          2
     1  B   -0.060599   0.928537
     2  B   -0.060600   0.928543
     3  H    0.060599   0.071460
     4  H    0.060599   0.071460
 Sum of Mulliken charges =  -0.00000   2.00000

 Dipole moment (field-independent basis, Debye):
    X=             -0.0000    Y=             -0.0000    Z=              0.0000  Tot=              0.0000
 Quadrupole moment (field-independent basis, Debye-Ang):
   XX=             -7.3788   YY=            -13.6836   ZZ=            -17.6787
   XY=              0.0000   XZ=             -0.0000   YZ=             -0.0001

 1\1\GINC-NODE06\FOpt\UM062X\6-311+G(d,p)\B2H2(3)\SZHAO\21-Apr-2025\0\\
 #p opt UM062X/6-311+G** nosymm int=superfine\\Title Card Required\\0,3
 \B,-2.02841047,0.,0.\B,2.02841047,0.,0.\H,-3.2340536961,-0.0000822611,
 0.0000000013\H,3.2340536997,0.0000822609,-0.0000000013\\Version=ES64L-
 G16RevA.03\HF=-50.4749973\S2=2.022706\S2-1=0.\S2A=2.000019\RMSD=2.235e
 -10\RMSF=4.426e-07\Dipole=-0.000004,0.,0.\Quadrupole=4.1150577,-0.5723
 875,-3.5426702,0.0000184,0.,-0.0000476\PG=C*V [C*(H1B1B1H1)]\\@

 Normal termination of Gaussian 16 at Mon Apr 21 17:29:49 2025.
