 Gaussian 16, Revision A.03,
 Gaussian 16:  ES64L-G16RevA.03 25-Dec-2016

 --------------------------------------------
 #p opt UM062X/6-311+G** nosymm int=superfine
 --------------------------------------------

 -------------------
 Title Card Required
 -------------------
 Symbolic Z-matrix:
 Charge =  0 Multiplicity = 1

 SCF Done:  E(UM062X) =  -797.516181583     A.U. after   12 cycles
 SCF Done:  E(UM062X) =  -797.517577385     A.U. after   11 cycles
 SCF Done:  E(UM062X) =  -797.517569782     A.U. after   12 cycles
 SCF Done:  E(UM062X) =  -797.517773623     A.U. after   11 cycles
 SCF Done:  E(UM062X) =  -797.517773814     A.U. after    9 cycles
 Optimization completed.
    -- Stationary point found.

                          Input orientation:
 ---------------------------------------------------------------------
 Center     Atomic      Atomic             Coordinates (Angstroms)
 Number     Number       Type             X           Y           Z
 ---------------------------------------------------------------------
      1         16           0       -1.293191    0.000000    0.000000
      2         16           0        1.293191    0.000000    0.000000
      3          1           0       -1.319172   -1.342827   -0.047515
      4          1           0        1.319307    0.085900    1.340911
 ---------------------------------------------------------------------

 Alpha  occ. eigenvalues --  -89.94075 -89.94075  -8.30261  -8.30258  -6.22413
 Alpha  occ. eigenvalues --   -6.22411  -6.22155  -6.22155  -6.21626  -6.21626
 Alpha  occ. eigenvalues --   -0.84359  -0.78756  -0.48108  -0.47180  -0.38436
 Alpha  occ. eigenvalues --   -0.33281  -0.32829
 Alpha virt. eigenvalues --   -0.11320   0.01775   0.03346   0.04808   0.05055
 Alpha virt. eigenvalues --    0.06089   0.07499   0.07551   0.07673   0.12226
 Alpha virt. eigenvalues --    0.13458   0.31057   0.31094   0.32433   0.34655

  Beta  occ. eigenvalues --  -89.94075 -89.94075  -8.30261  -8.30258  -6.22413
  Beta  occ. eigenvalues --   -6.22411  -6.22155  -6.22155  -6.21626  -6.21626
  Beta  occ. eigenvalues --   -0.84359  -0.78756  -0.48108  -0.47180  -0.38436
  Beta  occ. eigenvalues --   -0.33281  -0.32829
  Beta virt. eigenvalues --   -0.11320   0.01775   0.03346   0.04808   0.05055
  Beta virt. eigenvalues --    0.06089   0.07499   0.07551   0.07673   0.12226
  Beta virt. eigenvalues --    0.13458   0.31057   0.31094   0.32433   0.34655

 Mulliken charges and spin densities:
               1          2
     1  S   -0.089939  -0.000000
     2  S   -0.089957   0.000000
     3  H    0.089948   0.000000
     4  H    0.089947   0.000000
 Sum of Mulliken charges =  -0.00000  -0.00000

 Dipole moment (field-independent basis, Debye):
    X=              0.0000    Y=             -0.9889    Z=              1.0176  Tot=              1.4189
 Quadrupole moment (field-independent basis, Debye-Ang):
   XX=            -26.0779   YY=            -27.6825   ZZ=            -27.7062
   XY=              1.8824   XZ=              1.8297   YZ=              0.4118

 Normal termination of Gaussian 16 at Mon Apr 21 21:15:36 2025.
