 Gaussian 16, Revision A.03,
 Gaussian 16:  ES64L-G16RevA.03 25-Dec-2016

 --------------------------------------------
 #p opt UM062X/6-311+G** nosymm int=superfine
 --------------------------------------------

 -------------------
 Title Card Required
 -------------------
 Symbolic Z-matrix:
 Charge =  0 Multiplicity = 1

 SCF Done:  E(UM062X) =  -114.483330303     A.U. after   10 cycles
 SCF Done:  E(UM062X) =  -114.483435433     A.U. after    8 cycles
 SCF Done:  E(UM062X) =  -114.483441723     A.U. after    8 cycles
 SCF Done:  E(UM062X) =  -114.483435888     A.U. after    8 cycles
 SCF Done:  E(UM062X) =  -114.483403373     A.U. after    9 cycles
 SCF Done:  E(UM062X) =  -114.483441734     A.U. after    6 cycles
 Optimization completed.
    -- Stationary point found.

                          Input orientation:
 ---------------------------------------------------------------------
 Center     Atomic      Atomic             Coordinates (Angstroms)
 Number     Number       Type             X           Y           Z
 ---------------------------------------------------------------------
      1          6           0       -0.623311    0.000000    0.000000
      2          8           0        0.623311    0.000000    0.000000
      3          1           0       -1.188226   -0.943027    0.000001
      4          1           0       -1.188227    0.943026    0.000002
 ---------------------------------------------------------------------

 Alpha  occ. eigenvalues --  -19.65023 -10.64909  -1.16909  -0.73704  -0.57864
 Alpha  occ. eigenvalues --   -0.53120  -0.46230  -0.35381
 Alpha virt. eigenvalues --   -0.02323   0.01874   0.04559   0.04595   0.07004
 Alpha virt. eigenvalues --    0.16154   0.20733   0.21006   0.24305   0.25956
 Alpha virt. eigenvalues --    0.29387   0.35534   0.49014   0.51016   0.55115

  Beta  occ. eigenvalues --  -19.65023 -10.64909  -1.16909  -0.73704  -0.57864
  Beta  occ. eigenvalues --   -0.53120  -0.46230  -0.35381
  Beta virt. eigenvalues --   -0.02323   0.01874   0.04559   0.04595   0.07004
  Beta virt. eigenvalues --    0.16154   0.20733   0.21006   0.24305   0.25956
  Beta virt. eigenvalues --    0.29387   0.35534   0.49014   0.51016   0.55115

 Mulliken charges and spin densities:
               1          2
     1  C   -0.020037  -0.000000
     2  O   -0.251349   0.000000
     3  H    0.135693   0.000000
     4  H    0.135693   0.000000
 Sum of Mulliken charges =  -0.00000  -0.00000

 Dipole moment (field-independent basis, Debye):
    X=             -2.7590    Y=              0.0000    Z=              0.0000  Tot=              2.7590
 Quadrupole moment (field-independent basis, Debye-Ang):
   XX=            -11.8265   YY=            -11.5185   ZZ=            -11.8717
   XY=             -0.0000   XZ=             -0.0000   YZ=              0.0000

 Normal termination of Gaussian 16 at Mon Apr 21 18:47:36 2025.
