 Gaussian 16, Revision A.03,
 Gaussian 16:  ES64L-G16RevA.03 25-Dec-2016

 --------------------------------------------
 #p opt UM062X/6-311+G** nosymm int=superfine
 --------------------------------------------

 -------------------
 Title Card Required
 -------------------
 Symbolic Z-matrix:
 Charge =  1 Multiplicity = 2

 SCF Done:  E(UM062X) =  -582.128148691     A.U. after   11 cycles
 SCF Done:  E(UM062X) =  -582.128985338     A.U. after    9 cycles
 SCF Done:  E(UM062X) =  -582.129339112     A.U. after   10 cycles
 SCF Done:  E(UM062X) =  -582.129340943     A.U. after    8 cycles
 Optimization completed.
    -- Stationary point found.

                          Input orientation:
 ---------------------------------------------------------------------
 Center     Atomic      Atomic             Coordinates (Angstroms)
 Number     Number       Type             X           Y           Z
 ---------------------------------------------------------------------
      1         14           0       -2.701292    0.000000    0.000000
      2         14           0        2.701292    0.000000    0.000000
      3          1           0        2.793525   -1.461092   -0.000020
      4          1           0       -2.792786   -0.730407    1.265473
      5          1           0        2.793331    0.730585   -1.265330
      6          1           0        2.792562    0.730491    1.265441
      7          1           0       -2.793553    1.461091   -0.000149
      8          1           0       -2.793080   -0.730671   -1.265299
 ---------------------------------------------------------------------

 Alpha  occ. eigenvalues --  -67.21567 -67.21567  -5.76431  -5.76431  -4.08128
 Alpha  occ. eigenvalues --   -4.08127  -4.07307  -4.07307  -4.07307  -4.07307
 Alpha  occ. eigenvalues --   -0.80184  -0.80013  -0.60664  -0.60663  -0.60641
 Alpha  occ. eigenvalues --   -0.60640  -0.37956
 Alpha virt. eigenvalues --   -0.30549  -0.11342  -0.11311  -0.09672  -0.08744
 Alpha virt. eigenvalues --   -0.08743  -0.07659  -0.07659  -0.07441  -0.06800
 Alpha virt. eigenvalues --   -0.06800  -0.05889  -0.05888  -0.04891   0.00051

  Beta  occ. eigenvalues --  -67.21282 -67.21282  -5.76345  -5.76345  -4.07459
  Beta  occ. eigenvalues --   -4.07459  -4.07209  -4.07209  -4.07209  -4.07209
  Beta  occ. eigenvalues --   -0.78449  -0.78387  -0.60588  -0.60587  -0.60564
  Beta  occ. eigenvalues --   -0.60564
  Beta virt. eigenvalues --   -0.30045  -0.23603  -0.15886  -0.10947  -0.10945
  Beta virt. eigenvalues --   -0.10440  -0.09785  -0.08256  -0.08256  -0.07428
  Beta virt. eigenvalues --   -0.06233  -0.06233  -0.05370  -0.05370  -0.05293

 Mulliken charges and spin densities:
               1          2
     1  Si   0.520813   0.565143
     2  Si   0.520813   0.565143
     3  H   -0.006932  -0.021712
     4  H   -0.006942  -0.021715
     5  H   -0.006936  -0.021718
     6  H   -0.006944  -0.021714
     7  H   -0.006932  -0.021712
     8  H   -0.006939  -0.021717
 Sum of Mulliken charges =   1.00000   1.00000

 Dipole moment (field-independent basis, Debye):
    X=              0.0000    Y=             -0.0000    Z=              0.0000  Tot=              0.0000
 Quadrupole moment (field-independent basis, Debye-Ang):
   XX=             13.8248   YY=            -26.2478   ZZ=            -26.2475
   XY=              0.0007   XZ=              0.0000   YZ=             -0.0000

 Normal termination of Gaussian 16 at Mon Apr 21 20:12:31 2025.
