 Gaussian 16, Revision A.03,
 Gaussian 16:  ES64L-G16RevA.03 25-Dec-2016

 --------------------------------------------
 #p opt UM062X/6-311+G** nosymm int=superfine
 --------------------------------------------

 -------------------
 Title Card Required
 -------------------
 Symbolic Z-matrix:
 Charge =  1 Multiplicity = 2

 SCF Done:  E(UM062X) =  -76.5859812828     A.U. after   21 cycles
 SCF Done:  E(UM062X) =  -76.5863337471     A.U. after   50 cycles
 Optimization completed.
    -- Stationary point found.

                          Input orientation:
 ---------------------------------------------------------------------
 Center     Atomic      Atomic             Coordinates (Angstroms)
 Number     Number       Type             X           Y           Z
 ---------------------------------------------------------------------
      1          6           0       -1.707160    0.000000    0.000000
      2          6           0        1.707160    0.000000    0.000000
      3          1           0       -2.825159    0.000000   -0.000000
      4          1           0        2.825158    0.000000   -0.000000
 ---------------------------------------------------------------------

 Alpha  occ. eigenvalues --  -10.94867 -10.94866  -0.98569  -0.98304  -0.65076
 Alpha  occ. eigenvalues --   -0.62477  -0.48972
 Alpha virt. eigenvalues --   -0.40423  -0.33882  -0.33217  -0.12609  -0.11504
 Alpha virt. eigenvalues --   -0.07870  -0.07371  -0.05378  -0.04916  -0.04537
 Alpha virt. eigenvalues --   -0.01525  -0.00314   0.05983   0.23639   0.30693

  Beta  occ. eigenvalues --  -10.94461 -10.94460  -0.96172  -0.96022  -0.63751
  Beta  occ. eigenvalues --   -0.61064
  Beta virt. eigenvalues --   -0.32102  -0.31293  -0.30529  -0.29635  -0.13109
  Beta virt. eigenvalues --   -0.11424  -0.07358  -0.06632  -0.06187  -0.04206
  Beta virt. eigenvalues --   -0.03289  -0.02142   0.01342   0.07450   0.22953

 Mulliken charges and spin densities:
               1          2
     1  C    0.261509   0.516499
     2  C    0.261509   0.516499
     3  H    0.238491  -0.016499
     4  H    0.238491  -0.016499
 Sum of Mulliken charges =   1.00000   1.00000

 Dipole moment (field-independent basis, Debye):
    X=             -0.0000    Y=              0.0000    Z=             -0.0000  Tot=              0.0000
 Quadrupole moment (field-independent basis, Debye-Ang):
   XX=             17.4106   YY=            -11.0333   ZZ=             -9.9995
   XY=             -0.0000   XZ=              0.0000   YZ=             -0.8717

 Normal termination of Gaussian 16 at Tue Dec  3 11:29:47 2024.
