 Gaussian 16, Revision A.03,
 Gaussian 16:  ES64L-G16RevA.03 25-Dec-2016

 --------------------------------------------
 #p opt UM062X/6-311+G** nosymm int=superfine
 --------------------------------------------

 -------------------
 Title Card Required
 -------------------
 Symbolic Z-matrix:
 Charge =  0 Multiplicity = 1

 SCF Done:  E(UM062X) =  -382.291224185     A.U. after   12 cycles
 SCF Done:  E(UM062X) =  -382.300010617     A.U. after   11 cycles
 SCF Done:  E(UM062X) =  -382.303906800     A.U. after   11 cycles
 SCF Done:  E(UM062X) =  -382.303938865     A.U. after    9 cycles
 SCF Done:  E(UM062X) =  -382.303958985     A.U. after    9 cycles
 SCF Done:  E(UM062X) =  -382.303965739     A.U. after    9 cycles
 SCF Done:  E(UM062X) =  -382.303966250     A.U. after    8 cycles
 Optimization completed.
    -- Stationary point found.

                          Input orientation:
 ---------------------------------------------------------------------
 Center     Atomic      Atomic             Coordinates (Angstroms)
 Number     Number       Type             X           Y           Z
 ---------------------------------------------------------------------
      1          6           0       -1.581264    0.000000    0.000000
      2         15           0        1.581264    0.000000    0.000000
      3          1           0        1.536224   -1.418058    0.031768
      4          1           0       -1.704322    1.047456    0.235895
      5          1           0        1.536305    0.084268    1.415891
      6          1           0       -1.704308   -0.314293   -1.026660
      7          1           0       -1.721659   -0.728703    0.785962
 ---------------------------------------------------------------------

 Alpha  occ. eigenvalues --  -78.03308 -10.58475  -6.85649  -4.97176  -4.97110
 Alpha  occ. eigenvalues --   -4.96922  -0.77948  -0.69405  -0.49841  -0.49772
 Alpha  occ. eigenvalues --   -0.43616  -0.34747  -0.26292
 Alpha virt. eigenvalues --   -0.08979   0.01960   0.04001   0.04180   0.04632
 Alpha virt. eigenvalues --    0.06395   0.06914   0.07212   0.07399   0.12159
 Alpha virt. eigenvalues --    0.17527   0.18730   0.18915   0.24307   0.30057

  Beta  occ. eigenvalues --  -78.03308 -10.58475  -6.85649  -4.97176  -4.97110
  Beta  occ. eigenvalues --   -4.96922  -0.77948  -0.69405  -0.49841  -0.49772
  Beta  occ. eigenvalues --   -0.43616  -0.34747  -0.26292
  Beta virt. eigenvalues --   -0.08979   0.01960   0.04001   0.04180   0.04632
  Beta virt. eigenvalues --    0.06395   0.06914   0.07212   0.07399   0.12159
  Beta virt. eigenvalues --    0.17527   0.18730   0.18915   0.24307   0.30057

 Mulliken charges and spin densities:
               1          2
     1  C   -0.541117  -0.000000
     2  P   -0.032999   0.000000
     3  H    0.007952  -0.000000
     4  H    0.186682   0.000000
     5  H    0.007965  -0.000000
     6  H    0.186707   0.000000
     7  H    0.184810   0.000000
 Sum of Mulliken charges =  -0.00000  -0.00000

 Dipole moment (field-independent basis, Debye):
    X=             -1.0411    Y=             -0.5407    Z=              0.5870  Tot=              1.3118
 Quadrupole moment (field-independent basis, Debye-Ang):
   XX=            -22.4739   YY=            -22.2532   ZZ=            -22.3685
   XY=             -1.1246   XZ=              1.2209   YZ=              0.7028

 Normal termination of Gaussian 16 at Mon Apr 21 19:01:05 2025.
