 Gaussian 16, Revision A.03,
 Gaussian 16:  ES64L-G16RevA.03 25-Dec-2016

 --------------------------------------------
 #p opt UM062X/6-311+G** nosymm int=superfine
 --------------------------------------------

 -------------------
 Title Card Required
 -------------------
 Symbolic Z-matrix:
 Charge =  0 Multiplicity = 1

 SCF Done:  E(UM062X) =  -51.8327653053     A.U. after    9 cycles
 SCF Done:  E(UM062X) =  -51.8372609078     A.U. after    8 cycles
 SCF Done:  E(UM062X) =  -51.8395588325     A.U. after   10 cycles
 SCF Done:  E(UM062X) =  -51.8395600994     A.U. after    8 cycles
 SCF Done:  E(UM062X) =  -51.8395275820     A.U. after    9 cycles
 SCF Done:  E(UM062X) =  -51.8395604900     A.U. after    9 cycles
 Optimization completed.
    -- Stationary point found.

                          Input orientation:
 ---------------------------------------------------------------------
 Center     Atomic      Atomic             Coordinates (Angstroms)
 Number     Number       Type             X           Y           Z
 ---------------------------------------------------------------------
      1          5           0       -1.695607    0.000000    0.000000
      2          5           0        1.695607    0.000000    0.000000
      3          1           0       -2.180057   -1.076154   -0.000273
      4          1           0        2.180057    1.076137   -0.006034
      5          1           0       -2.180058    1.076153    0.000701
      6          1           0        2.180058   -1.076134    0.006433
 ---------------------------------------------------------------------

 Alpha  occ. eigenvalues --   -7.10912  -7.10911  -0.57640  -0.56965  -0.44472
 Alpha  occ. eigenvalues --   -0.44202  -0.22097
 Alpha virt. eigenvalues --   -0.05270  -0.04149  -0.03162   0.02310   0.03566
 Alpha virt. eigenvalues --    0.03859   0.05641   0.06281   0.07486   0.07885
 Alpha virt. eigenvalues --    0.10264   0.15713   0.16783   0.17211   0.25207

  Beta  occ. eigenvalues --   -7.10912  -7.10911  -0.57640  -0.56965  -0.44472
  Beta  occ. eigenvalues --   -0.44202  -0.22097
  Beta virt. eigenvalues --   -0.05270  -0.04149  -0.03162   0.02310   0.03566
  Beta virt. eigenvalues --    0.03859   0.05641   0.06281   0.07486   0.07885
  Beta virt. eigenvalues --    0.10264   0.15713   0.16783   0.17211   0.25207

 Mulliken charges and spin densities:
               1          2
     1  B   -0.051843  -0.000000
     2  B   -0.051843   0.000000
     3  H    0.025922  -0.000000
     4  H    0.025922   0.000000
     5  H    0.025922  -0.000000
     6  H    0.025922   0.000000
 Sum of Mulliken charges =  -0.00000  -0.00000

 Dipole moment (field-independent basis, Debye):
    X=              0.0000    Y=              0.0000    Z=              0.0002  Tot=              0.0002
 Quadrupole moment (field-independent basis, Debye-Ang):
   XX=            -13.0028   YY=            -16.9092   ZZ=            -14.2619
   XY=             -0.0000   XZ=              0.0000   YZ=              0.0071

 Normal termination of Gaussian 16 at Mon Apr 21 17:11:50 2025.
