 Gaussian 16, Revision A.03,
 Gaussian 16:  ES64L-G16RevA.03 25-Dec-2016

 --------------------------------------------
 #p opt UM062X/6-311+G** nosymm int=superfine
 --------------------------------------------

 -------------------
 Title Card Required
 -------------------
 Symbolic Z-matrix:
 Charge =  0 Multiplicity = 1

 SCF Done:  E(UM062X) =  -115.451249925     A.U. after   19 cycles
 SCF Done:  E(UM062X) =  -115.467616490     A.U. after   14 cycles
 SCF Done:  E(UM062X) =  -115.477691166     A.U. after   14 cycles
 SCF Done:  E(UM062X) =  -115.477848118     A.U. after   11 cycles
 SCF Done:  E(UM062X) =  -115.477950296     A.U. after   12 cycles
 SCF Done:  E(UM062X) =  -115.478077012     A.U. after   15 cycles
 SCF Done:  E(UM062X) =  -115.478107042     A.U. after   10 cycles
 SCF Done:  E(UM062X) =  -115.478114798     A.U. after    9 cycles
 SCF Done:  E(UM062X) =  -115.478115051     A.U. after   10 cycles
 Optimization completed.
    -- Stationary point found.

                          Input orientation:
 ---------------------------------------------------------------------
 Center     Atomic      Atomic             Coordinates (Angstroms)
 Number     Number       Type             X           Y           Z
 ---------------------------------------------------------------------
      1          6           0       -1.757203    0.000000    0.000000
      2          8           0        1.757203    0.000000    0.000000
      3          1           0        1.797857   -0.964885    0.000571
      4          1           0       -1.826742   -0.533743    0.937959
      5          1           0       -1.661968    1.077253   -0.000665
      6          1           0       -1.826678   -0.534903   -0.937303
 ---------------------------------------------------------------------

 Alpha  occ. eigenvalues --  -19.58451 -10.67137  -1.00863  -0.84896  -0.57011
 Alpha  occ. eigenvalues --   -0.56798  -0.45401  -0.32358  -0.27969
 Alpha virt. eigenvalues --   -0.16836   0.00370   0.03714   0.04005   0.06752
 Alpha virt. eigenvalues --    0.13352   0.14749   0.14925   0.19577   0.22830
 Alpha virt. eigenvalues --    0.23042   0.24924   0.28229   0.39057   0.39285

  Beta  occ. eigenvalues --  -19.58451 -10.67137  -1.00863  -0.84896  -0.57011
  Beta  occ. eigenvalues --   -0.56798  -0.45401  -0.32358  -0.27969
  Beta virt. eigenvalues --   -0.16836   0.00370   0.03714   0.04005   0.06752
  Beta virt. eigenvalues --    0.13352   0.14749   0.14925   0.19577   0.22830
  Beta virt. eigenvalues --    0.23042   0.24924   0.28229   0.39057   0.39285

 Mulliken charges and spin densities:
               1          2
     1  C   -0.292044  -0.000000
     2  O   -0.565438   0.000000
     3  H    0.211597   0.000000
     4  H    0.210941  -0.000000
     5  H    0.224002   0.000000
     6  H    0.210942   0.000000
 Sum of Mulliken charges =  -0.00000   0.00000

 Dipole moment (field-independent basis, Debye):
    X=             -6.1152    Y=             -1.5744    Z=              0.0009  Tot=              6.3147
 Quadrupole moment (field-independent basis, Debye-Ang):
   XX=            -13.2514   YY=            -11.4896   ZZ=            -13.9080
   XY=             -2.9391   XZ=              0.0017   YZ=             -0.0014

 Normal termination of Gaussian 16 at Mon Apr 21 18:41:13 2025.
