 Gaussian 16, Revision A.03,
 Gaussian 16:  ES64L-G16RevA.03 25-Dec-2016

 --------------------------------------------
 #p opt UM062X/6-311+G** nosymm int=superfine
 --------------------------------------------

 -------------------
 Title Card Required
 -------------------
 Symbolic Z-matrix:
 Charge =  0 Multiplicity = 1

 SCF Done:  E(UM062X) =  -684.911059165     A.U. after   11 cycles
 SCF Done:  E(UM062X) =  -684.911708359     A.U. after   10 cycles
 SCF Done:  E(UM062X) =  -684.912115958     A.U. after   10 cycles
 SCF Done:  E(UM062X) =  -684.912620608     A.U. after   12 cycles
 SCF Done:  E(UM062X) =  -684.912823849     A.U. after   10 cycles
 SCF Done:  E(UM062X) =  -684.912933610     A.U. after   11 cycles
 SCF Done:  E(UM062X) =  -684.912948942     A.U. after   10 cycles
 SCF Done:  E(UM062X) =  -684.912962373     A.U. after   11 cycles
 SCF Done:  E(UM062X) =  -684.912987817     A.U. after   10 cycles
 SCF Done:  E(UM062X) =  -684.913015120     A.U. after   12 cycles
 SCF Done:  E(UM062X) =  -684.913093604     A.U. after   13 cycles
 SCF Done:  E(UM062X) =  -684.913106625     A.U. after   12 cycles
 SCF Done:  E(UM062X) =  -684.913120039     A.U. after   12 cycles
 SCF Done:  E(UM062X) =  -684.913141725     A.U. after   12 cycles
 SCF Done:  E(UM062X) =  -684.913141494     A.U. after   12 cycles
 SCF Done:  E(UM062X) =  -684.913143666     A.U. after   12 cycles
 SCF Done:  E(UM062X) =  -684.913144185     A.U. after   11 cycles
 SCF Done:  E(UM062X) =  -684.913144414     A.U. after    9 cycles
 SCF Done:  E(UM062X) =  -684.913144453     A.U. after    9 cycles
 SCF Done:  E(UM062X) =  -684.913144484     A.U. after    8 cycles
 Optimization completed.
    -- Stationary point found.

                          Input orientation:
 ---------------------------------------------------------------------
 Center     Atomic      Atomic             Coordinates (Angstroms)
 Number     Number       Type             X           Y           Z
 ---------------------------------------------------------------------
      1         15           0       -2.317217    0.000000    0.000000
      2         15           0        2.317217    0.000000    0.000000
      3          1           0        2.204741   -1.023876    0.975701
      4          1           0       -2.207588    1.099142    0.890519
      5          1           0        2.210426   -0.935845   -1.061270
      6          1           0       -2.210183    0.847987   -1.132554
 ---------------------------------------------------------------------

 Alpha  occ. eigenvalues --  -78.04993 -78.04993  -6.87403  -6.87403  -4.98949
 Alpha  occ. eigenvalues --   -4.98949  -4.98827  -4.98827  -4.98645  -4.98644
 Alpha  occ. eigenvalues --   -0.71194  -0.70932  -0.45130  -0.45036  -0.36279
 Alpha  occ. eigenvalues --   -0.36182  -0.24016
 Alpha virt. eigenvalues --   -0.15503   0.01560   0.02851   0.03195   0.04014
 Alpha virt. eigenvalues --    0.04829   0.05884   0.06078   0.06090   0.06154
 Alpha virt. eigenvalues --    0.07900   0.12984   0.18323   0.28934   0.29655

  Beta  occ. eigenvalues --  -78.04993 -78.04993  -6.87403  -6.87403  -4.98949
  Beta  occ. eigenvalues --   -4.98949  -4.98827  -4.98827  -4.98645  -4.98644
  Beta  occ. eigenvalues --   -0.71194  -0.70932  -0.45130  -0.45036  -0.36279
  Beta  occ. eigenvalues --   -0.36182  -0.24016
  Beta virt. eigenvalues --   -0.15503   0.01560   0.02851   0.03195   0.04014
  Beta virt. eigenvalues --    0.04829   0.05884   0.06078   0.06090   0.06154
  Beta virt. eigenvalues --    0.07900   0.12984   0.18323   0.28934   0.29655

 Mulliken charges and spin densities:
               1          2
     1  P    0.004776   0.000000
     2  P    0.004911  -0.000000
     3  H   -0.001967   0.000000
     4  H   -0.001995  -0.000000
     5  H   -0.002862   0.000000
     6  H   -0.002863  -0.000000
 Sum of Mulliken charges =  -0.00000  -0.00000

 Dipole moment (field-independent basis, Debye):
    X=             -0.0005    Y=             -0.0064    Z=             -0.1491  Tot=              0.1493
 Quadrupole moment (field-independent basis, Debye-Ang):
   XX=            -28.9156   YY=            -31.2400   ZZ=            -28.5518
   XY=             -4.5651   XZ=              0.1815   YZ=              0.1078

 Normal termination of Gaussian 16 at Mon Apr 21 21:00:23 2025.
