 Gaussian 16, Revision A.03,
 Gaussian 16:  ES64L-G16RevA.03 25-Dec-2016

 ---------------------------------------------------------
 #p opt UM062X/6-311+G** nosymm int=superfine SCF=NoVarAcc
 ---------------------------------------------------------

 -------------------
 Title Card Required
 -------------------
 Symbolic Z-matrix:
 Charge =  0 Multiplicity = 1

 SCF Done:  E(UM062X) =  -76.8140183179     A.U. after   22 cycles
 SCF Done:  E(UM062X) =  -76.8140265577     A.U. after    9 cycles
 Optimization completed.
    -- Stationary point found.

                          Input orientation:
 ---------------------------------------------------------------------
 Center     Atomic      Atomic             Coordinates (Angstroms)
 Number     Number       Type             X           Y           Z
 ---------------------------------------------------------------------
      1          6           0       -6.932625    0.000000    0.000000
      2          6           0        6.932625    0.000000    0.000000
      3          1           0       -8.052838   -0.000007    0.000007
      4          1           0        8.052838    0.000005   -0.000005
 ---------------------------------------------------------------------

 Alpha  occ. eigenvalues --  -10.66753 -10.66753  -0.72535  -0.72533  -0.38719
 Alpha  occ. eigenvalues --   -0.38718  -0.19204
 Alpha virt. eigenvalues --   -0.17157  -0.09740  -0.09740   0.03286   0.03288
 Alpha virt. eigenvalues --    0.08087   0.08087   0.08196   0.08198   0.08912
 Alpha virt. eigenvalues --    0.08912   0.17330   0.17330   0.45387   0.45389

  Beta  occ. eigenvalues --  -10.66753 -10.66753  -0.72535  -0.72533  -0.38719
  Beta  occ. eigenvalues --   -0.38718  -0.19204
  Beta virt. eigenvalues --   -0.17157  -0.09740  -0.09740   0.03286   0.03288
  Beta virt. eigenvalues --    0.08087   0.08087   0.08196   0.08198   0.08912
  Beta virt. eigenvalues --    0.08912   0.17330   0.17330   0.45387   0.45389

 Mulliken charges and spin densities:
               1          2
     1  C   -0.129433   0.000000
     2  C   -0.129433  -0.000000
     3  H    0.129433   0.000000
     4  H    0.129433  -0.000000
 Sum of Mulliken charges =  -0.00000  -0.00000

 Dipole moment (field-independent basis, Debye):
    X=             -0.0000    Y=             -0.0000    Z=              0.0000  Tot=              0.0000
 Quadrupole moment (field-independent basis, Debye-Ang):
   XX=             31.1214   YY=            -14.5902   ZZ=            -14.5894
   XY=              0.0001   XZ=             -0.0001   YZ=             -2.7035

 Normal termination of Gaussian 16 at Tue Dec  3 20:21:58 2024.
