 Gaussian 16, Revision A.03,
 Gaussian 16:  ES64L-G16RevA.03 25-Dec-2016

 --------------------------------------------
 #p opt UM062X/6-311+G** nosymm int=superfine
 --------------------------------------------

 -------------------
 Title Card Required
 -------------------
 Symbolic Z-matrix:
 Charge =  0 Multiplicity = 1

 SCF Done:  E(UM062X) =  -579.895631960     A.U. after    9 cycles
 SCF Done:  E(UM062X) =  -579.898909455     A.U. after    9 cycles
 SCF Done:  E(UM062X) =  -579.898919602     A.U. after    7 cycles
 Optimization completed.
    -- Stationary point found.

                          Input orientation:
 ---------------------------------------------------------------------
 Center     Atomic      Atomic             Coordinates (Angstroms)
 Number     Number       Type             X           Y           Z
 ---------------------------------------------------------------------
      1         14           0       -1.753705    0.000000    0.000000
      2         14           0        1.753705    0.000000    0.000000
      3          1           0       -3.284878   -0.000012   -0.000000
      4          1           0        3.284878    0.000056    0.000000
 ---------------------------------------------------------------------

 Alpha  occ. eigenvalues --  -67.04401 -67.04401  -5.58818  -5.58817  -3.89909
 Alpha  occ. eigenvalues --   -3.89908  -3.89463  -3.89462  -3.89338  -3.89338
 Alpha  occ. eigenvalues --   -0.55155  -0.54204  -0.35303  -0.29566  -0.18997
 Alpha virt. eigenvalues --   -0.09857  -0.09468  -0.07560   0.02285   0.02983
 Alpha virt. eigenvalues --    0.04531   0.05253   0.05732   0.06060   0.07102
 Alpha virt. eigenvalues --    0.08492   0.09627   0.19794   0.29227   0.29574

  Beta  occ. eigenvalues --  -67.04401 -67.04401  -5.58818  -5.58817  -3.89909
  Beta  occ. eigenvalues --   -3.89908  -3.89463  -3.89462  -3.89338  -3.89338
  Beta  occ. eigenvalues --   -0.55155  -0.54204  -0.35303  -0.29566  -0.18997
  Beta virt. eigenvalues --   -0.09857  -0.09468  -0.07560   0.02285   0.02983
  Beta virt. eigenvalues --    0.04531   0.05253   0.05732   0.06060   0.07102
  Beta virt. eigenvalues --    0.08492   0.09627   0.19794   0.29227   0.29574

 Mulliken charges and spin densities:
               1          2
     1  Si   0.142999  -0.000000
     2  Si   0.142997   0.000000
     3  H   -0.142998   0.000000
     4  H   -0.142998  -0.000000
 Sum of Mulliken charges =  -0.00000  -0.00000

 Dipole moment (field-independent basis, Debye):
    X=             -0.0000    Y=              0.0000    Z=             -0.0000  Tot=              0.0000
 Quadrupole moment (field-independent basis, Debye-Ang):
   XX=            -31.5369   YY=            -24.2026   ZZ=            -35.4930
   XY=             -0.0002   XZ=             -0.0000   YZ=              0.0005

 Normal termination of Gaussian 16 at Mon Apr 21 21:19:37 2025.
