 Gaussian 16, Revision A.03,
 Gaussian 16:  ES64L-G16RevA.03 25-Dec-2016

 --------------------------------------------
 #p opt UM062X/6-311+G** nosymm int=superfine
 --------------------------------------------

 -------------------
 Title Card Required
 -------------------
 Symbolic Z-matrix:
 Charge =  1 Multiplicity = 2

 SCF Done:  E(UM062X) =  -79.2953807198     A.U. after   12 cycles
 SCF Done:  E(UM062X) =  -79.3274824862     A.U. after   10 cycles
 SCF Done:  E(UM062X) =  -79.3342767633     A.U. after   12 cycles
 SCF Done:  E(UM062X) =  -79.3355316350     A.U. after   16 cycles
 SCF Done:  E(UM062X) =  -79.3440880810     A.U. after   15 cycles
 SCF Done:  E(UM062X) =  -79.3523280244     A.U. after   14 cycles
 SCF Done:  E(UM062X) =  -79.3569272564     A.U. after   14 cycles
 SCF Done:  E(UM062X) =  -79.3556923409     A.U. after   14 cycles
 SCF Done:  E(UM062X) =  -79.3595802335     A.U. after   13 cycles
 SCF Done:  E(UM062X) =  -79.3615923618     A.U. after   13 cycles
 SCF Done:  E(UM062X) =  -79.3662554115     A.U. after   13 cycles
 SCF Done:  E(UM062X) =  -79.3669777013     A.U. after   14 cycles
 SCF Done:  E(UM062X) =  -79.3702074096     A.U. after   12 cycles
 SCF Done:  E(UM062X) =  -79.3698755665     A.U. after   12 cycles
 SCF Done:  E(UM062X) =  -79.3712177518     A.U. after   12 cycles
 SCF Done:  E(UM062X) =  -79.3713750468     A.U. after   11 cycles
 SCF Done:  E(UM062X) =  -79.3714168094     A.U. after   11 cycles
 SCF Done:  E(UM062X) =  -79.3714211882     A.U. after   10 cycles
 SCF Done:  E(UM062X) =  -79.3714221851     A.U. after    9 cycles
 SCF Done:  E(UM062X) =  -79.3714224198     A.U. after    9 cycles
 Optimization completed.
    -- Stationary point found.

                          Input orientation:
 ---------------------------------------------------------------------
 Center     Atomic      Atomic             Coordinates (Angstroms)
 Number     Number       Type             X           Y           Z
 ---------------------------------------------------------------------
      1          6           0       -0.756136    0.000000    0.000000
      2          6           0        0.756136    0.000000    0.000000
      3          1           0        1.251759   -0.916682    0.309947
      4          1           0       -1.251747   -0.918621   -0.304203
      5          1           0        1.251557    0.918862    0.303714
      6          1           0        0.677384   -0.004193   -1.155669
      7          1           0       -1.251526    0.916881   -0.309707
      8          1           0       -0.677673    0.003336    1.155663
 ---------------------------------------------------------------------

 Alpha  occ. eigenvalues --  -10.84755 -10.84714  -1.18268  -0.98874  -0.82878
 Alpha  occ. eigenvalues --   -0.80813  -0.75566  -0.70439  -0.64936
 Alpha virt. eigenvalues --   -0.17426  -0.12550  -0.12344  -0.11842  -0.10907
 Alpha virt. eigenvalues --   -0.07740  -0.06463  -0.05700  -0.05198  -0.02131
 Alpha virt. eigenvalues --   -0.00407   0.01201   0.03578   0.04003   0.04601

  Beta  occ. eigenvalues --  -10.84546 -10.84506  -1.15402  -0.95990  -0.80031
  Beta  occ. eigenvalues --   -0.77348  -0.74104  -0.69866
  Beta virt. eigenvalues --   -0.43004  -0.17201  -0.12819  -0.11745  -0.11685
  Beta virt. eigenvalues --   -0.10488  -0.07791  -0.06496  -0.05418  -0.03392
  Beta virt. eigenvalues --   -0.01849   0.00091   0.01566   0.04315   0.04896

 Mulliken charges and spin densities:
               1          2
     1  C   -0.376889   0.316693
     2  C   -0.376753   0.316848
     3  H    0.278859  -0.010594
     4  H    0.278843  -0.010589
     5  H    0.278844  -0.010632
     6  H    0.319127   0.204446
     7  H    0.278844  -0.010615
     8  H    0.319124   0.204444
 Sum of Mulliken charges =   1.00000   1.00000

 Dipole moment (field-independent basis, Debye):
    X=              0.0000    Y=             -0.0007    Z=             -0.0002  Tot=              0.0007
 Quadrupole moment (field-independent basis, Debye-Ang):
   XX=             -8.2201   YY=            -10.9074   ZZ=             -9.7867
   XY=             -0.0018   XZ=             -0.5322   YZ=              0.0039

 Normal termination of Gaussian 16 at Sat Nov 16 16:00:02 2024.
