 Gaussian 16, Revision A.03,
 Gaussian 16:  ES64L-G16RevA.03 25-Dec-2016

 --------------------------------------------
 #p opt UM062X/6-311+G** nosymm int=superfine
 --------------------------------------------

 -------------------
 Title Card Required
 -------------------
 Symbolic Z-matrix:
 Charge =  0 Multiplicity = 1

 SCF Done:  E(UM062X) =  -81.9555422612     A.U. after   10 cycles
 SCF Done:  E(UM062X) =  -81.9568288360     A.U. after    8 cycles
 SCF Done:  E(UM062X) =  -81.9569420676     A.U. after   10 cycles
 SCF Done:  E(UM062X) =  -81.9497535372     A.U. after   10 cycles
 SCF Done:  E(UM062X) =  -81.9572101667     A.U. after   10 cycles
 SCF Done:  E(UM062X) =  -81.9572816472     A.U. after   10 cycles
 SCF Done:  E(UM062X) =  -81.9579229638     A.U. after   11 cycles
 SCF Done:  E(UM062X) =  -81.9580021505     A.U. after    9 cycles
 SCF Done:  E(UM062X) =  -81.9580165895     A.U. after    9 cycles
 SCF Done:  E(UM062X) =  -81.9580464672     A.U. after    9 cycles
 SCF Done:  E(UM062X) =  -81.9580528184     A.U. after    8 cycles
 SCF Done:  E(UM062X) =  -81.9580674537     A.U. after    9 cycles
 SCF Done:  E(UM062X) =  -81.9580747482     A.U. after    9 cycles
 SCF Done:  E(UM062X) =  -81.9580781423     A.U. after    9 cycles
 SCF Done:  E(UM062X) =  -81.9580785932     A.U. after    7 cycles
 Optimization completed.
    -- Stationary point found.

                          Input orientation:
 ---------------------------------------------------------------------
 Center     Atomic      Atomic             Coordinates (Angstroms)
 Number     Number       Type             X           Y           Z
 ---------------------------------------------------------------------
      1          5           0       -0.895399    0.000000    0.000000
      2          7           0        0.895399    0.000000    0.000000
      3          1           0       -1.397370   -1.067420   -0.037109
      4          1           0        1.321199    0.841136    0.361803
      5          1           0       -1.397377    1.067506   -0.034403
      6          1           0        1.321214   -0.842074    0.359595
 ---------------------------------------------------------------------

 Alpha  occ. eigenvalues --  -14.73470  -7.09745  -0.91776  -0.58147  -0.54419
 Alpha  occ. eigenvalues --   -0.43092  -0.42135  -0.31975
 Alpha virt. eigenvalues --   -0.01880   0.01325   0.02873   0.03615   0.06144
 Alpha virt. eigenvalues --    0.11164   0.13129   0.15794   0.16485   0.17204
 Alpha virt. eigenvalues --    0.20191   0.20830   0.24445   0.24524   0.37238

  Beta  occ. eigenvalues --  -14.73470  -7.09745  -0.91776  -0.58147  -0.54419
  Beta  occ. eigenvalues --   -0.43092  -0.42135  -0.31975
  Beta virt. eigenvalues --   -0.01880   0.01325   0.02873   0.03615   0.06144
  Beta virt. eigenvalues --    0.11164   0.13129   0.15794   0.16485   0.17204
  Beta virt. eigenvalues --    0.20191   0.20830   0.24445   0.24524   0.37238

 Mulliken charges and spin densities:
               1          2
     1  B    0.174805   0.000000
     2  N   -0.697537  -0.000000
     3  H    0.013681  -0.000000
     4  H    0.247684   0.000000
     5  H    0.013682   0.000000
     6  H    0.247684   0.000000
 Sum of Mulliken charges =  -0.00000   0.00000

 Dipole moment (field-independent basis, Debye):
    X=             -0.2779    Y=             -0.0014    Z=              1.0550  Tot=              1.0910
 Quadrupole moment (field-independent basis, Debye-Ang):
   XX=            -13.4930   YY=            -13.0963   ZZ=            -15.2326
   XY=             -0.0022   XZ=              1.6719   YZ=              0.0029

 Normal termination of Gaussian 16 at Mon Apr 21 17:44:03 2025.
