 Gaussian 16, Revision A.03,
 Gaussian 16:  ES64L-G16RevA.03 25-Dec-2016

 ---------------------------------------------------
 #p UM062X/6-311+G** force int=superfine pop=saveNBO
 ---------------------------------------------------

 -------------------
 Title Card Required
 -------------------
 Symbolic Z-matrix:
 Charge =  0 Multiplicity = 1

                         Standard orientation:
 ---------------------------------------------------------------------
 Center     Atomic      Atomic             Coordinates (Angstroms)
 Number     Number       Type             X           Y           Z
 ---------------------------------------------------------------------
      1          6           0        0.000000    0.000000   -2.966249
      2         16           0        0.000000    0.000000    1.112343
 ---------------------------------------------------------------------

 SCF Done:  E(UM062X) =  -435.735278125     A.U. after   19 cycles

 The electronic state is 1-SG.
 Alpha  occ. eigenvalues --  -89.93218 -10.82523  -8.29063  -6.20849  -6.20849
 Alpha  occ. eigenvalues --   -6.20801  -0.72895  -0.71200  -0.29010  -0.28016
 Alpha  occ. eigenvalues --   -0.28016
 Alpha virt. eigenvalues --   -0.20822  -0.20822  -0.19504   0.02494   0.05647
 Alpha virt. eigenvalues --    0.05662   0.05662   0.08347   0.08347   0.08372
 Alpha virt. eigenvalues --    0.13341   0.35627   0.36538   0.36538   0.51256

  Beta  occ. eigenvalues --  -89.93218 -10.82523  -8.29063  -6.20849  -6.20849
  Beta  occ. eigenvalues --   -6.20801  -0.72895  -0.71200  -0.29010  -0.28016
  Beta  occ. eigenvalues --   -0.28016
  Beta virt. eigenvalues --   -0.20822  -0.20822  -0.19504   0.02494   0.05647
  Beta virt. eigenvalues --    0.05662   0.05662   0.08347   0.08347   0.08372
  Beta virt. eigenvalues --    0.13341   0.35627   0.36538   0.36538   0.51256

 Mulliken charges and spin densities:
               1          2
     1  C    0.218954  -0.000000
     2  S   -0.218954   0.000000
 Sum of Mulliken charges =  -0.00000   0.00000

 Dipole moment (field-independent basis, Debye):
    X=              0.0000    Y=              0.0000    Z=             -4.2988  Tot=              4.2988
 Quadrupole moment (field-independent basis, Debye-Ang):
   XX=            -20.9101   YY=            -20.9101   ZZ=            -10.3773
   XY=              0.0000   XZ=              0.0000   YZ=              0.0000

 Summary of Natural Population Analysis:

                                       Natural Population
                Natural  -----------------------------------------------
    Atom  No    Charge         Core      Valence    Rydberg      Total
 -----------------------------------------------------------------------
      C    1    0.12245      1.00000     1.87713    0.00042     2.87755
      S    2   -0.12245      5.00000     3.12223    0.00022     8.12245
 =======================================================================
   * Total *   -0.00000      6.00000     4.99936    0.00064    11.00000

 Normal termination of Gaussian 16 at Mon Apr 21 19:47:02 2025.
