 Gaussian 16, Revision A.03,
 Gaussian 16:  ES64L-G16RevA.03 25-Dec-2016

 --------------------------------------------
 #p opt UM062X/6-311+G** nosymm int=superfine
 --------------------------------------------

 -------------------
 Title Card Required
 -------------------
 Symbolic Z-matrix:
 Charge =  0 Multiplicity = 1

 SCF Done:  E(UM062X) =  -474.463259088     A.U. after   16 cycles
 SCF Done:  E(UM062X) =  -474.463828000     A.U. after   14 cycles
 SCF Done:  E(UM062X) =  -474.464300351     A.U. after   14 cycles
 SCF Done:  E(UM062X) =  -474.464705052     A.U. after   14 cycles
 SCF Done:  E(UM062X) =  -474.465624281     A.U. after   16 cycles
 SCF Done:  E(UM062X) =  -474.465956924     A.U. after   11 cycles
 SCF Done:  E(UM062X) =  -474.466540685     A.U. after   14 cycles
 SCF Done:  E(UM062X) =  -474.467067213     A.U. after   14 cycles
 SCF Done:  E(UM062X) =  -474.467935535     A.U. after   15 cycles
 SCF Done:  E(UM062X) =  -474.467949117     A.U. after   13 cycles
 SCF Done:  E(UM062X) =  -474.467776371     A.U. after   13 cycles
 Optimization completed.
    -- Stationary point found.

                          Input orientation:
 ---------------------------------------------------------------------
 Center     Atomic      Atomic             Coordinates (Angstroms)
 Number     Number       Type             X           Y           Z
 ---------------------------------------------------------------------
      1          8           0       -1.235765   -0.000176    0.000584
      2         16           0        1.235720    0.000395   -0.000652
      3          1           0       -1.283201    0.856072   -0.450914
      4          1           0        1.145062   -1.077439   -0.800947
 ---------------------------------------------------------------------

 Alpha  occ. eigenvalues --  -89.97340 -19.67407  -8.33368  -6.25587  -6.25218
 Alpha  occ. eigenvalues --   -6.24671  -1.09011  -0.83088  -0.52933  -0.49172
 Alpha  occ. eigenvalues --   -0.40118  -0.39530  -0.34807
 Alpha virt. eigenvalues --   -0.15328   0.01559   0.04098   0.04782   0.05695
 Alpha virt. eigenvalues --    0.07500   0.15117   0.19515   0.19999   0.21570
 Alpha virt. eigenvalues --    0.26902   0.31416   0.34014   0.35313   0.40339

  Beta  occ. eigenvalues --  -89.97340 -19.67407  -8.33368  -6.25586  -6.25218
  Beta  occ. eigenvalues --   -6.24671  -1.09011  -0.83088  -0.52933  -0.49172
  Beta  occ. eigenvalues --   -0.40118  -0.39530  -0.34807
  Beta virt. eigenvalues --   -0.15328   0.01559   0.04098   0.04782   0.05695
  Beta virt. eigenvalues --    0.07500   0.15117   0.19515   0.19999   0.21570
  Beta virt. eigenvalues --    0.26902   0.31416   0.34014   0.35313   0.40339

 Mulliken charges and spin densities:
               1          2
     1  O   -0.433780  -0.000010
     2  S    0.073803   0.000010
     3  H    0.250382   0.000000
     4  H    0.109595  -0.000000
 Sum of Mulliken charges =  -0.00000   0.00000

 Dipole moment (field-independent basis, Debye):
    X=              1.7895    Y=              0.5617    Z=             -1.4564  Tot=              2.3746
 Quadrupole moment (field-independent basis, Debye-Ang):
   XX=            -18.3638   YY=            -17.9073   ZZ=            -20.5375
   XY=             -3.4816   XZ=              0.2380   YZ=              0.9357

 Normal termination of Gaussian 16 at Mon Apr 21 22:42:36 2025.
