 Gaussian 16, Revision A.03,
 Gaussian 16:  ES64L-G16RevA.03 25-Dec-2016

 ---------------------------------------
 #p UM062X/6-311+G** force int=superfine
 ---------------------------------------

 -------------------
 Title Card Required
 -------------------
 Symbolic Z-matrix:
 Charge =  0 Multiplicity = 1

                         Standard orientation:
 ---------------------------------------------------------------------
 Center     Atomic      Atomic             Coordinates (Angstroms)
 Number     Number       Type             X           Y           Z
 ---------------------------------------------------------------------
      1          6           0        0.000000    0.961164    0.000000
      2          6           0       -0.000000   -0.961164   -0.000000
      3          1           0        0.967457    1.437728    0.000000
      4          1           0       -0.967454    1.437713   -0.000000
      5          1           0       -0.967457   -1.437728    0.000000
      6          1           0        0.967454   -1.437713   -0.000000
 ---------------------------------------------------------------------

 SCF Done:  E(UM062X) =  -78.4031642058     A.U. after    8 cycles

 The electronic state is 1-AG.
 Alpha  occ. eigenvalues --  -10.60510 -10.60494  -0.78018  -0.70951  -0.52949
 Alpha  occ. eigenvalues --   -0.49128  -0.39201  -0.26726
 Alpha virt. eigenvalues --   -0.05659   0.02528   0.03363   0.05394   0.07413
 Alpha virt. eigenvalues --    0.08978   0.09833   0.11480   0.11628   0.15488
 Alpha virt. eigenvalues --    0.16519   0.21160   0.21183   0.28400   0.40004

  Beta  occ. eigenvalues --  -10.60510 -10.60494  -0.78018  -0.70951  -0.52949
  Beta  occ. eigenvalues --   -0.49128  -0.39201  -0.26726
  Beta virt. eigenvalues --   -0.05659   0.02528   0.03363   0.05394   0.07413
  Beta virt. eigenvalues --    0.08978   0.09833   0.11480   0.11628   0.15488
  Beta virt. eigenvalues --    0.16519   0.21160   0.21183   0.28400   0.40004

 Mulliken charges and spin densities:
               1          2
     1  C   -0.354448   0.000000
     2  C   -0.354448   0.000000
     3  H    0.177224  -0.000000
     4  H    0.177224  -0.000000
     5  H    0.177224  -0.000000
     6  H    0.177224  -0.000000
 Sum of Mulliken charges =  -0.00000   0.00000

 Dipole moment (field-independent basis, Debye):
    X=              0.0000    Y=             -0.0000    Z=              0.0000  Tot=              0.0000
 Quadrupole moment (field-independent basis, Debye-Ang):
   XX=            -12.1259   YY=            -11.4041   ZZ=            -17.9554
   XY=              0.0000   XZ=              0.0000   YZ=              0.0000

 Normal termination of Gaussian 16 at Tue Nov 19 11:49:00 2024.
