 Gaussian 16, Revision A.03,
 Gaussian 16:  ES64L-G16RevA.03 25-Dec-2016

 --------------------------------------------
 #p opt UM062X/6-311+G** nosymm int=superfine
 --------------------------------------------

 -------------------
 Title Card Required
 -------------------
 Symbolic Z-matrix:
 Charge =  1 Multiplicity = 2

 SCF Done:  E(UM062X) =  -1615.51105222     A.U. after   22 cycles
 SCF Done:  E(UM062X) =  -1615.56865094     A.U. after   19 cycles
 SCF Done:  E(UM062X) =  -1615.58508245     A.U. after   20 cycles
 SCF Done:  E(UM062X) =  -1615.58429502     A.U. after   20 cycles
 SCF Done:  E(UM062X) =  -1615.58576583     A.U. after   20 cycles
 SCF Done:  E(UM062X) =  -1615.52985043     A.U. after   25 cycles
 SCF Done:  E(UM062X) =  -1615.57673281     A.U. after   23 cycles
 SCF Done:  E(UM062X) =  -1615.58583062     A.U. after   16 cycles
 SCF Done:  E(UM062X) =  -1615.58579822     A.U. after   19 cycles
 SCF Done:  E(UM062X) =  -1615.58590216     A.U. after   19 cycles
 SCF Done:  E(UM062X) =  -1615.58590567     A.U. after   19 cycles
 SCF Done:  E(UM062X) =  -1615.58593661     A.U. after   19 cycles
 SCF Done:  E(UM062X) =  -1615.58594417     A.U. after   15 cycles
 SCF Done:  E(UM062X) =  -1615.58594885     A.U. after   15 cycles
 SCF Done:  E(UM062X) =  -1615.58595021     A.U. after   13 cycles
 SCF Done:  E(UM062X) =  -1615.58595051     A.U. after   12 cycles
 SCF Done:  E(UM062X) =  -1615.58595060     A.U. after   12 cycles
 SCF Done:  E(UM062X) =  -1615.58595064     A.U. after   12 cycles
 Optimization completed.
    -- Stationary point found.

                          Input orientation:
 ---------------------------------------------------------------------
 Center     Atomic      Atomic             Coordinates (Angstroms)
 Number     Number       Type             X           Y           Z
 ---------------------------------------------------------------------
      1          6           0       -1.326792    0.000000    0.000000
      2          6           0        1.326792    0.000000    0.000000
      3          6           0       -0.000007   -2.132637   -0.000176
      4          6           0       -0.000011   -3.514794   -0.000295
      5          6           0       -1.132891   -4.317792    0.252271
      6          6           0       -1.241605   -1.480479    0.231210
      7          6           0        0.660916   -5.713223   -0.149671
      8          1           0        1.278409   -6.588458   -0.292718
      9          6           0       -1.517393    0.813907    1.181829
     10          6           0       -0.660973   -5.713246    0.148591
     11          1           0       -1.278477   -6.588504    0.291456
     12          6           0        1.132854   -4.317753   -0.253047
     13          6           0        1.241590   -1.480441   -0.231470
     14          6           0        1.700722    2.232529   -1.226570
     15          6           0       -1.524038    0.341748   -1.396043
     16          6           0       -1.888042    2.861651    2.472809
     17          1           0       -2.038869    3.934886    2.482319
     18          6           0       -2.318182   -3.676873    0.524205
     19          1           0       -3.231476   -4.221940    0.733788
     20          6           0       -1.572891    1.661326   -1.949718
     21          6           0        2.355463   -2.251453   -0.501642
     22          1           0        3.307087   -1.755692   -0.663522
     23          6           0        1.524083    0.341442    1.396106
     24          6           0        1.573029    1.660895    1.950065
     25          6           0        2.318141   -3.676791   -0.524897
     26          1           0        3.231424   -4.221828   -0.734613
     27          6           0       -1.700547    2.232300    1.227038
     28          6           0       -1.478285    0.143016    2.436594
     29          1           0       -1.299653   -0.921019    2.457741
     30          6           0        1.639720   -0.733219    2.330003
     31          1           0        1.642743   -1.752253    1.975252
     32          6           0       -1.885579    2.166513    3.663168
     33          1           0       -2.040999    2.686215    4.600787
     34          6           0       -2.355489   -2.251530    0.501224
     35          1           0       -3.307111   -1.755790    0.663184
     36          6           0       -1.673728    1.822232   -3.347413
     37          1           0       -1.689339    2.831845   -3.741187
     38          6           0        1.517474    0.814137   -1.181660
     39          6           0       -1.656964    3.135713    0.106913
     40          1           0       -1.703235    4.183388    0.387940
     41          6           0       -1.781565    0.756690   -4.210742
     42          1           0       -1.879286    0.922290   -5.276745
     43          6           0       -1.572141    2.897798   -1.215698
     44          1           0       -1.552173    3.781804   -1.845958
     45          6           0        1.673901    1.821490    3.347794
     46          1           0        1.689576    2.831014    3.741793
     47          6           0       -1.662112    0.788228    3.638874
     48          1           0       -1.625117    0.220654    4.560731
     49          6           0       -1.639753   -0.732698   -2.330185
     50          1           0       -1.642888   -1.751810   -1.975665
     51          6           0        1.781683    0.755748    4.210885
     52          1           0        1.879446    0.921105    5.276921
     53          6           0        1.888272    2.862134   -2.472205
     54          1           0        2.039192    3.935358   -2.481482
     55          6           0        1.781445   -0.539132    3.684101
     56          1           0        1.888863   -1.397266    4.336190
     57          6           0        1.885756    2.167254   -3.662713
     58          1           0        2.041203    2.687150   -4.600220
     59          6           0        1.657211    3.135709   -0.106254
     60          1           0        1.703566    4.183440   -0.387056
     61          6           0       -1.781440   -0.538305   -3.684243
     62          1           0       -1.888916   -1.396288   -4.336521
     63          6           0        1.572349    2.897521    1.216306
     64          1           0        1.552425    3.781396    1.846752
     65          6           0        1.478323    0.143520   -2.436571
     66          1           0        1.299635   -0.920501   -2.457955
     67          6           0        1.662192    0.788979   -3.638711
     68          1           0        1.625148    0.221603   -4.560688
 ---------------------------------------------------------------------

 Alpha  occ. eigenvalues --  -10.71154 -10.71153 -10.68569 -10.68569 -10.68561
 Alpha  occ. eigenvalues --  -10.68561 -10.68235 -10.68235 -10.68123 -10.68123
 Alpha  occ. eigenvalues --  -10.67021 -10.67020 -10.66583 -10.66583 -10.66478
 Alpha  occ. eigenvalues --  -10.66478 -10.66005 -10.66005 -10.65968 -10.65799
 Alpha  occ. eigenvalues --  -10.65799 -10.65767 -10.65767 -10.65761 -10.65761
 Alpha  occ. eigenvalues --  -10.65702 -10.65702 -10.65656 -10.65656 -10.65586
 Alpha  occ. eigenvalues --  -10.65586 -10.65581 -10.65581 -10.65502 -10.65502
 Alpha  occ. eigenvalues --  -10.65286 -10.65286 -10.65007 -10.65007 -10.64020
 Alpha  occ. eigenvalues --  -10.63922 -10.63313  -1.12462  -1.10252  -1.10148
 Alpha  occ. eigenvalues --   -1.08432  -1.07785  -1.05760  -1.04827  -1.02581
 Alpha  occ. eigenvalues --   -1.02105  -1.00849  -1.00512  -0.97947  -0.97630
 Alpha  occ. eigenvalues --   -0.96877  -0.96265  -0.95029  -0.93497  -0.93478
 Alpha  occ. eigenvalues --   -0.92820  -0.91890  -0.87457  -0.87387  -0.84979
 Alpha  occ. eigenvalues --   -0.84742  -0.83098  -0.81435  -0.81268  -0.79842
 Alpha  occ. eigenvalues --   -0.79733  -0.79528  -0.77553  -0.76410  -0.76193
 Alpha  occ. eigenvalues --   -0.75769  -0.75448  -0.73606  -0.70247  -0.69716
 Alpha  occ. eigenvalues --   -0.69091  -0.68525  -0.67746  -0.67628  -0.66955
 Alpha  occ. eigenvalues --   -0.66842  -0.65686  -0.65368  -0.65163  -0.64824
 Alpha  occ. eigenvalues --   -0.63323  -0.62950  -0.62360  -0.62174  -0.61176
 Alpha  occ. eigenvalues --   -0.61082  -0.60698  -0.60475  -0.60091  -0.60085
 Alpha  occ. eigenvalues --   -0.59590  -0.58935  -0.58792  -0.58145  -0.57830
 Alpha  occ. eigenvalues --   -0.57618  -0.56749  -0.55895  -0.55670  -0.55639
 Alpha  occ. eigenvalues --   -0.54989  -0.54027  -0.53146  -0.52839  -0.52666
 Alpha  occ. eigenvalues --   -0.52462  -0.52305  -0.52302  -0.51115  -0.50998
 Alpha  occ. eigenvalues --   -0.50971  -0.50910  -0.50317  -0.49498  -0.49307
 Alpha  occ. eigenvalues --   -0.48900  -0.48555  -0.47860  -0.44762  -0.44591
 Alpha  occ. eigenvalues --   -0.44127  -0.42856  -0.40492  -0.40424  -0.39286
 Alpha  occ. eigenvalues --   -0.38154  -0.37601  -0.37177  -0.32025
 Alpha virt. eigenvalues --   -0.19848  -0.15808  -0.15572  -0.14380  -0.10566
 Alpha virt. eigenvalues --   -0.09940  -0.08877  -0.08546  -0.08358  -0.07573
 Alpha virt. eigenvalues --   -0.07514  -0.07472  -0.06648  -0.06378  -0.06136

  Beta  occ. eigenvalues --  -10.71020 -10.71019 -10.68604 -10.68603 -10.68586
  Beta  occ. eigenvalues --  -10.68586 -10.68194 -10.68194 -10.68081 -10.68081
  Beta  occ. eigenvalues --  -10.67037 -10.67037 -10.66575 -10.66575 -10.66466
  Beta  occ. eigenvalues --  -10.66466 -10.65969 -10.65969 -10.65942 -10.65799
  Beta  occ. eigenvalues --  -10.65799 -10.65740 -10.65740 -10.65733 -10.65733
  Beta  occ. eigenvalues --  -10.65678 -10.65678 -10.65673 -10.65673 -10.65597
  Beta  occ. eigenvalues --  -10.65597 -10.65572 -10.65571 -10.65509 -10.65509
  Beta  occ. eigenvalues --  -10.65300 -10.65300 -10.65004 -10.65003 -10.64020
  Beta  occ. eigenvalues --  -10.63922 -10.63311  -1.12296  -1.10159  -1.09992
  Beta  occ. eigenvalues --   -1.08315  -1.07682  -1.05596  -1.04706  -1.02455
  Beta  occ. eigenvalues --   -1.01994  -1.00690  -1.00338  -0.97845  -0.97537
  Beta  occ. eigenvalues --   -0.96755  -0.96161  -0.94978  -0.93434  -0.93379
  Beta  occ. eigenvalues --   -0.92733  -0.91800  -0.87105  -0.87096  -0.84908
  Beta  occ. eigenvalues --   -0.84678  -0.83019  -0.81342  -0.81152  -0.79758
  Beta  occ. eigenvalues --   -0.79663  -0.79458  -0.77436  -0.76251  -0.76045
  Beta  occ. eigenvalues --   -0.75604  -0.75412  -0.73481  -0.70132  -0.69569
  Beta  occ. eigenvalues --   -0.68952  -0.68418  -0.67687  -0.67576  -0.66831
  Beta  occ. eigenvalues --   -0.66742  -0.65608  -0.65228  -0.65025  -0.64720
  Beta  occ. eigenvalues --   -0.63071  -0.62907  -0.62278  -0.62090  -0.60941
  Beta  occ. eigenvalues --   -0.60825  -0.60555  -0.60346  -0.60032  -0.60031
  Beta  occ. eigenvalues --   -0.59467  -0.58794  -0.58710  -0.58067  -0.57588
  Beta  occ. eigenvalues --   -0.57379  -0.56577  -0.55616  -0.55582  -0.55536
  Beta  occ. eigenvalues --   -0.54971  -0.53686  -0.53022  -0.52753  -0.52584
  Beta  occ. eigenvalues --   -0.52409  -0.52215  -0.52196  -0.50958  -0.50929
  Beta  occ. eigenvalues --   -0.50820  -0.50477  -0.49612  -0.49203  -0.48942
  Beta  occ. eigenvalues --   -0.48724  -0.48498  -0.47522  -0.44260  -0.44069
  Beta  occ. eigenvalues --   -0.43392  -0.42516  -0.40358  -0.40076  -0.38671
  Beta  occ. eigenvalues --   -0.37954  -0.37365  -0.37026
  Beta virt. eigenvalues --   -0.22118  -0.17572  -0.15555  -0.15515  -0.14412
  Beta virt. eigenvalues --   -0.10322  -0.09546  -0.08505  -0.08401  -0.08246
  Beta virt. eigenvalues --   -0.07573  -0.07567  -0.07220  -0.06627  -0.06324

 Mulliken charges and spin densities:
               1          2
     1  C    0.011658   0.314171
     2  C    0.011497   0.314172
     3  C    0.228668   0.006764
     4  C    0.109463   0.001121
     5  C    0.113384   0.005161
     6  C    0.005065  -0.030370
     7  C   -0.307790   0.001243
     8  H    0.176341  -0.000053
     9  C    0.234728  -0.040033
    10  C   -0.307834   0.001243
    11  H    0.176341  -0.000053
    12  C    0.113374   0.005162
    13  C    0.005102  -0.030358
    14  C    0.295574   0.050421
    15  C    0.322600  -0.049127
    16  C   -0.254191  -0.033535
    17  H    0.163864   0.001033
    18  C   -0.452006  -0.000811
    19  H    0.175847   0.000338
    20  C    0.213797   0.099612
    21  C   -0.134831   0.016088
    22  H    0.174425  -0.000244
    23  C    0.322556  -0.049121
    24  C    0.213890   0.099610
    25  C   -0.451966  -0.000809
    26  H    0.175847   0.000338
    27  C    0.295596   0.050414
    28  C   -0.069626   0.059607
    29  H    0.205271  -0.003361
    30  C   -0.290499   0.032365
    31  H    0.226370  -0.001919
    32  C   -0.378945   0.056549
    33  H    0.181851  -0.003019
    34  C   -0.134797   0.016088
    35  H    0.174425  -0.000244
    36  C   -0.048081  -0.051009
    37  H    0.162209   0.001441
    38  C    0.234684  -0.040039
    39  C   -0.284410   0.060608
    40  H    0.166774  -0.003770
    41  C   -0.230574   0.057443
    42  H    0.180383  -0.002819
    43  C   -0.280269   0.017761
    44  H    0.159634  -0.000992
    45  C   -0.048035  -0.051006
    46  H    0.162208   0.001441
    47  C   -0.123759  -0.026065
    48  H    0.169049  -0.000444
    49  C   -0.290604   0.032373
    50  H    0.226362  -0.001919
    51  C   -0.230605   0.057440
    52  H    0.180383  -0.002819
    53  C   -0.254086  -0.033528
    54  H    0.163866   0.001033
    55  C   -0.328067  -0.031163
    56  H    0.175202   0.000941
    57  C   -0.378943   0.056547
    58  H    0.181851  -0.003019
    59  C   -0.284467   0.060602
    60  H    0.166776  -0.003769
    61  C   -0.328027  -0.031162
    62  H    0.175203   0.000941
    63  C   -0.280299   0.017764
    64  H    0.159637  -0.000992
    65  C   -0.069594   0.059606
    66  H    0.205263  -0.003361
    67  C   -0.123761  -0.026063
    68  H    0.169047  -0.000444
 Sum of Mulliken charges =   1.00000   1.00000

 Dipole moment (field-independent basis, Debye):
    X=              0.0002    Y=              2.4060    Z=              0.0002  Tot=              2.4060
 Quadrupole moment (field-independent basis, Debye-Ang):
   XX=           -222.5316   YY=           -175.0886   ZZ=           -176.2445
   XY=              0.0021   XZ=             -1.7741   YZ=             -0.0000

 Normal termination of Gaussian 16 at Fri Nov  8 22:13:25 2024.
