 Gaussian 16, Revision A.03,
 Gaussian 16:  ES64L-G16RevA.03 25-Dec-2016

 --------------------------------------------
 #p opt UM062X/6-311+G** nosymm int=superfine
 --------------------------------------------

 -------------------
 Title Card Required
 -------------------
 Symbolic Z-matrix:
 Charge =  0 Multiplicity = 1

 SCF Done:  E(UM062X) =  -77.3083489235     A.U. after    9 cycles
 SCF Done:  E(UM062X) =  -77.3111273690     A.U. after    9 cycles
 SCF Done:  E(UM062X) =  -77.3111330048     A.U. after    7 cycles
 Optimization completed.
    -- Stationary point found.

                          Input orientation:
 ---------------------------------------------------------------------
 Center     Atomic      Atomic             Coordinates (Angstroms)
 Number     Number       Type             X           Y           Z
 ---------------------------------------------------------------------
      1          6           0       -0.574575    0.000000    0.000000
      2          6           0        0.574575    0.000000    0.000000
      3          1           0       -1.638036   -0.000000   -0.000000
      4          1           0        1.638036   -0.000000   -0.000000
 ---------------------------------------------------------------------

 Alpha  occ. eigenvalues --  -10.53403 -10.53000  -0.86449  -0.64046  -0.56833
 Alpha  occ. eigenvalues --   -0.36679  -0.36679
 Alpha virt. eigenvalues --    0.02666   0.02975   0.05396   0.05396   0.07526
 Alpha virt. eigenvalues --    0.07526   0.09317   0.15846   0.15846   0.16142
 Alpha virt. eigenvalues --    0.20395   0.24571   0.41486   0.44517   0.56245

  Beta  occ. eigenvalues --  -10.53403 -10.53000  -0.86449  -0.64046  -0.56833
  Beta  occ. eigenvalues --   -0.36679  -0.36679
  Beta virt. eigenvalues --    0.02666   0.02975   0.05396   0.05396   0.07526
  Beta virt. eigenvalues --    0.07526   0.09317   0.15846   0.15846   0.16142
  Beta virt. eigenvalues --    0.20395   0.24571   0.41486   0.44517   0.56245

 Mulliken charges and spin densities:
               1          2
     1  C   -0.164777   0.000000
     2  C   -0.164777  -0.000000
     3  H    0.164777   0.000000
     4  H    0.164777  -0.000000
 Sum of Mulliken charges =  -0.00000  -0.00000

 Dipole moment (field-independent basis, Debye):
    X=             -0.0000    Y=             -0.0000    Z=             -0.0000  Tot=              0.0000
 Quadrupole moment (field-independent basis, Debye-Ang):
   XX=             -7.0416   YY=            -13.5555   ZZ=            -13.5555
   XY=              0.0000   XZ=              0.0000   YZ=              0.0000

 Normal termination of Gaussian 16 at Tue Dec  3 20:02:18 2024.
