 Gaussian 16, Revision A.03,
 Gaussian 16:  ES64L-G16RevA.03 25-Dec-2016

 ---------------------------------------------------
 #p UM062X/6-311+G** force int=superfine pop=saveNBO
 ---------------------------------------------------

 -------------------
 Title Card Required
 -------------------
 Symbolic Z-matrix:
 Charge =  0 Multiplicity = 1

                         Standard orientation:
 ---------------------------------------------------------------------
 Center     Atomic      Atomic             Coordinates (Angstroms)
 Number     Number       Type             X           Y           Z
 ---------------------------------------------------------------------
      1          6           0        0.000000    0.000000   -2.184094
      2          8           0        0.000000    0.000000    1.638070
 ---------------------------------------------------------------------

 SCF Done:  E(UM062X) =  -112.636601615     A.U. after   19 cycles

 The electronic state is 1-SG.
 Alpha  occ. eigenvalues --  -19.69231 -10.83089  -0.99164  -0.72442  -0.37975
 Alpha  occ. eigenvalues --   -0.30131  -0.30131
 Alpha virt. eigenvalues --   -0.22584  -0.22584  -0.18243   0.02308   0.05982
 Alpha virt. eigenvalues --    0.05982   0.07262   0.18611   0.21247   0.21247
 Alpha virt. eigenvalues --    0.24995   0.50913   0.50913   0.51849   0.60915

  Beta  occ. eigenvalues --  -19.69231 -10.83089  -0.99164  -0.72442  -0.37975
  Beta  occ. eigenvalues --   -0.30131  -0.30131
  Beta virt. eigenvalues --   -0.22584  -0.22584  -0.18243   0.02308   0.05982
  Beta virt. eigenvalues --    0.05982   0.07262   0.18611   0.21247   0.21247
  Beta virt. eigenvalues --    0.24995   0.50913   0.50913   0.51849   0.60915

 Mulliken charges and spin densities:
               1          2
     1  C    0.296927  -0.000000
     2  O   -0.296927   0.000000
 Sum of Mulliken charges =  -0.00000   0.00000

 Dipole moment (field-independent basis, Debye):
    X=              0.0000    Y=              0.0000    Z=             -5.4155  Tot=              5.4155
 Quadrupole moment (field-independent basis, Debye-Ang):
   XX=            -12.3782   YY=            -12.3782   ZZ=             -8.0276
   XY=              0.0000   XZ=              0.0000   YZ=              0.0000

 Summary of Natural Population Analysis:

                                       Natural Population
                Natural  -----------------------------------------------
    Atom  No    Charge         Core      Valence    Rydberg      Total
 -----------------------------------------------------------------------
      C    1    0.15315      1.00000     1.84675    0.00010     2.84685
      O    2   -0.15315      1.00000     3.15249    0.00066     4.15315
 =======================================================================
   * Total *    0.00000      2.00000     4.99924    0.00076     7.00000

 Normal termination of Gaussian 16 at Mon Apr 21 19:32:05 2025.
