 Gaussian 16, Revision A.03,
 Gaussian 16:  ES64L-G16RevA.03 25-Dec-2016

 --------------------------------------------
 #p opt UM062X/6-311+G** nosymm int=superfine
 --------------------------------------------

 -------------------
 Title Card Required
 -------------------
 Symbolic Z-matrix:
 Charge =  0 Multiplicity = 1

 SCF Done:  E(UM062X) =  -581.143162205     A.U. after    9 cycles
 SCF Done:  E(UM062X) =  -581.162716256     A.U. after    8 cycles
 SCF Done:  E(UM062X) =  -581.174584223     A.U. after    8 cycles
 SCF Done:  E(UM062X) =  -581.174604213     A.U. after    7 cycles
 Optimization completed.
    -- Stationary point found.

                          Input orientation:
 ---------------------------------------------------------------------
 Center     Atomic      Atomic             Coordinates (Angstroms)
 Number     Number       Type             X           Y           Z
 ---------------------------------------------------------------------
      1         14           0       -2.512518    0.000000    0.000000
      2         14           0        2.512518    0.000000    0.000000
      3          1           0       -3.574836   -1.084487    0.000042
      4          1           0        3.574836    1.084487   -0.000544
      5          1           0       -3.574841    1.084483    0.000257
      6          1           0        3.574841   -1.084483    0.000843
 ---------------------------------------------------------------------

 Alpha  occ. eigenvalues --  -67.01335 -67.01335  -5.56056  -5.56056  -3.87305
 Alpha  occ. eigenvalues --   -3.87305  -3.86763  -3.86763  -3.86620  -3.86620
 Alpha  occ. eigenvalues --   -0.57298  -0.57259  -0.37894  -0.37879  -0.28787
 Alpha  occ. eigenvalues --   -0.27586
 Alpha virt. eigenvalues --   -0.08096  -0.07666   0.02078   0.02529   0.02940
 Alpha virt. eigenvalues --    0.04537   0.05490   0.06038   0.06108   0.07455
 Alpha virt. eigenvalues --    0.07758   0.08949   0.11392   0.13890   0.28586

  Beta  occ. eigenvalues --  -67.01335 -67.01335  -5.56056  -5.56056  -3.87305
  Beta  occ. eigenvalues --   -3.87305  -3.86763  -3.86763  -3.86620  -3.86620
  Beta  occ. eigenvalues --   -0.57298  -0.57259  -0.37894  -0.37879  -0.28787
  Beta  occ. eigenvalues --   -0.27586
  Beta virt. eigenvalues --   -0.08096  -0.07666   0.02078   0.02529   0.02940
  Beta virt. eigenvalues --    0.04537   0.05490   0.06038   0.06108   0.07455
  Beta virt. eigenvalues --    0.07758   0.08949   0.11392   0.13890   0.28586

 Mulliken charges and spin densities:
               1          2
     1  Si   0.323336   0.000000
     2  Si   0.323336  -0.000000
     3  H   -0.161668  -0.000000
     4  H   -0.161668   0.000000
     5  H   -0.161668  -0.000000
     6  H   -0.161668   0.000000
 Sum of Mulliken charges =  -0.00000   0.00000

 Dipole moment (field-independent basis, Debye):
    X=              0.0000    Y=              0.0000    Z=              0.0001  Tot=              0.0001
 Quadrupole moment (field-independent basis, Debye-Ang):
   XX=            -34.9427   YY=            -32.7044   ZZ=            -24.3638
   XY=             -0.0000   XZ=              0.0000   YZ=              0.0023

 Normal termination of Gaussian 16 at Mon Apr 21 20:35:31 2025.
