 Gaussian 16, Revision A.03,
 Gaussian 16:  ES64L-G16RevA.03 25-Dec-2016

 --------------------------------------------
 #p opt UM062X/6-311+G** nosymm int=superfine
 --------------------------------------------

 -------------------
 Title Card Required
 -------------------
 Symbolic Z-matrix:
 Charge =  0 Multiplicity = 1

 SCF Done:  E(UM062X) =  -797.416864896     A.U. after   13 cycles
 SCF Done:  E(UM062X) =  -797.417470087     A.U. after   12 cycles
 SCF Done:  E(UM062X) =  -797.418497529     A.U. after   15 cycles
 SCF Done:  E(UM062X) =  -797.418535896     A.U. after   14 cycles
 SCF Done:  E(UM062X) =  -797.418549545     A.U. after   15 cycles
 SCF Done:  E(UM062X) =  -797.418551469     A.U. after   18 cycles
 SCF Done:  E(UM062X) =  -797.418551933     A.U. after   13 cycles
 SCF Done:  E(UM062X) =  -797.418552121     A.U. after   16 cycles
 SCF Done:  E(UM062X) =  -797.418552154     A.U. after   12 cycles
 SCF Done:  E(UM062X) =  -797.418552157     A.U. after   15 cycles
 Optimization completed.
    -- Stationary point found.

                          Input orientation:
 ---------------------------------------------------------------------
 Center     Atomic      Atomic             Coordinates (Angstroms)
 Number     Number       Type             X           Y           Z
 ---------------------------------------------------------------------
      1         16           0       -1.843191    0.000000    0.000000
      2         16           0        1.843191    0.000000    0.000000
      3          1           0       -1.735841   -1.325271   -0.211971
      4          1           0        1.734071    0.242694    1.319722
 ---------------------------------------------------------------------

 Alpha  occ. eigenvalues --  -89.94725 -89.94724  -8.30917  -8.30916  -6.23072
 Alpha  occ. eigenvalues --   -6.23071  -6.22808  -6.22807  -6.22244  -6.22243
 Alpha  occ. eigenvalues --   -0.81743  -0.80959  -0.47396  -0.47336  -0.33538
 Alpha  occ. eigenvalues --   -0.33263  -0.32438
 Alpha virt. eigenvalues --   -0.20235   0.01944   0.03086   0.04482   0.04946
 Alpha virt. eigenvalues --    0.06452   0.07007   0.07310   0.07455   0.10119
 Alpha virt. eigenvalues --    0.13054   0.30608   0.31183   0.33329   0.34121

  Beta  occ. eigenvalues --  -89.94725 -89.94724  -8.30917  -8.30916  -6.23072
  Beta  occ. eigenvalues --   -6.23071  -6.22808  -6.22807  -6.22244  -6.22243
  Beta  occ. eigenvalues --   -0.81743  -0.80959  -0.47396  -0.47336  -0.33538
  Beta  occ. eigenvalues --   -0.33263  -0.32438
  Beta virt. eigenvalues --   -0.20235   0.01944   0.03086   0.04482   0.04946
  Beta virt. eigenvalues --    0.06452   0.07007   0.07310   0.07455   0.10119
  Beta virt. eigenvalues --    0.13054   0.30608   0.31183   0.33329   0.34121

 Mulliken charges and spin densities:
               1          2
     1  S   -0.085449  -0.000000
     2  S   -0.085335   0.000000
     3  H    0.085394  -0.000000
     4  H    0.085390  -0.000000
 Sum of Mulliken charges =   0.00000   0.00000

 Dipole moment (field-independent basis, Debye):
    X=             -0.0010    Y=             -0.8895    Z=              0.9107  Tot=              1.2730
 Quadrupole moment (field-independent basis, Debye-Ang):
   XX=            -25.1237   YY=            -28.0469   ZZ=            -28.1102
   XY=              2.4176   XZ=              2.3596   YZ=              1.3565

 Normal termination of Gaussian 16 at Mon Apr 21 21:17:48 2025.
