 Gaussian 16, Revision A.03,
 Gaussian 16:  ES64L-G16RevA.03 25-Dec-2016

 --------------------------------------------
 #p opt UM062X/6-311+G** nosymm int=superfine
 --------------------------------------------

 -------------------
 Title Card Required
 -------------------
 Symbolic Z-matrix:
 Charge =  0 Multiplicity = 1

 SCF Done:  E(UM062X) =  -77.1493792204     A.U. after   10 cycles
 SCF Done:  E(UM062X) =  -77.2017523975     A.U. after   10 cycles
 SCF Done:  E(UM062X) =  -77.2065866287     A.U. after    8 cycles
 SCF Done:  E(UM062X) =  -77.2066045145     A.U. after    7 cycles
 Optimization completed.
    -- Stationary point found.

                          Input orientation:
 ---------------------------------------------------------------------
 Center     Atomic      Atomic             Coordinates (Angstroms)
 Number     Number       Type             X           Y           Z
 ---------------------------------------------------------------------
      1          6           0       -0.502753    0.000000    0.000000
      2          6           0        0.502753    0.000000    0.000000
      3          1           0       -1.563323    0.000000   -0.000000
      4          1           0        1.563321    0.000000   -0.000000
 ---------------------------------------------------------------------

 Alpha  occ. eigenvalues --  -10.49567 -10.48276  -0.89001  -0.61864  -0.56586
 Alpha  occ. eigenvalues --   -0.39756  -0.39756
 Alpha virt. eigenvalues --    0.02804   0.03316   0.07067   0.07067   0.07228
 Alpha virt. eigenvalues --    0.07228   0.09440   0.16733   0.19604   0.19604
 Alpha virt. eigenvalues --    0.21742   0.24954   0.44062   0.45242   0.54365

  Beta  occ. eigenvalues --  -10.49567 -10.48276  -0.89001  -0.61864  -0.56586
  Beta  occ. eigenvalues --   -0.39756  -0.39756
  Beta virt. eigenvalues --    0.02804   0.03316   0.07067   0.07067   0.07228
  Beta virt. eigenvalues --    0.07228   0.09440   0.16733   0.19604   0.19604
  Beta virt. eigenvalues --    0.21742   0.24954   0.44062   0.45242   0.54365

 Mulliken charges and spin densities:
               1          2
     1  C   -0.135056  -0.000000
     2  C   -0.135055   0.000000
     3  H    0.135056   0.000000
     4  H    0.135055   0.000000
 Sum of Mulliken charges =  -0.00000  -0.00000

 Dipole moment (field-independent basis, Debye):
    X=             -0.0000    Y=              0.0000    Z=             -0.0000  Tot=              0.0000
 Quadrupole moment (field-independent basis, Debye-Ang):
   XX=             -7.4676   YY=            -12.7940   ZZ=            -12.7940
   XY=              0.0000   XZ=             -0.0000   YZ=              0.0000

 Normal termination of Gaussian 16 at Tue Dec  3 19:59:30 2024.
