 Gaussian 16, Revision A.03,
 Gaussian 16:  ES64L-G16RevA.03 25-Dec-2016

 --------------------------------------------
 #p opt UM062X/6-311+G** nosymm int=superfine
 --------------------------------------------

 -------------------
 Title Card Required
 -------------------
 Symbolic Z-matrix:
 Charge =  1 Multiplicity = 2

 SCF Done:  E(UM062X) =  -76.5957792209     A.U. after   11 cycles
 SCF Done:  E(UM062X) =  -76.6340212685     A.U. after   13 cycles
 SCF Done:  E(UM062X) =  -76.6954664441     A.U. after   13 cycles
 SCF Done:  E(UM062X) =  -76.7036812923     A.U. after   75 cycles
 SCF Done:  E(UM062X) =  -76.7037219432     A.U. after    9 cycles
 Optimization completed.
    -- Stationary point found.

                          Input orientation:
 ---------------------------------------------------------------------
 Center     Atomic      Atomic             Coordinates (Angstroms)
 Number     Number       Type             X           Y           Z
 ---------------------------------------------------------------------
      1          6           0       -0.876093    0.000000    0.000000
      2          6           0        0.876093    0.000000    0.000000
      3          1           0       -1.974469   -0.000000   -0.000000
      4          1           0        1.974442   -0.000000   -0.000000
 ---------------------------------------------------------------------

 Alpha  occ. eigenvalues --  -11.00369 -11.00337  -1.09125  -0.99376  -0.83290
 Alpha  occ. eigenvalues --   -0.62695  -0.60616
 Alpha virt. eigenvalues --   -0.37069  -0.35084  -0.30147  -0.14161  -0.11489
 Alpha virt. eigenvalues --   -0.10418  -0.08965  -0.08732  -0.05338  -0.05035
 Alpha virt. eigenvalues --    0.01130   0.03584   0.06988   0.23056   0.31317

  Beta  occ. eigenvalues --  -11.00113 -11.00092  -1.05429  -0.97576  -0.82340
  Beta  occ. eigenvalues --   -0.58692
  Beta virt. eigenvalues --   -0.40246  -0.33355  -0.28735  -0.28063  -0.15164
  Beta virt. eigenvalues --   -0.11813  -0.10913  -0.09338  -0.09176  -0.05313
  Beta virt. eigenvalues --   -0.05044   0.00199   0.03680   0.07232   0.23649

 Mulliken charges and spin densities:
               1          2
     1  C    0.133470   0.522133
     2  C    0.133467   0.522145
     3  H    0.366537  -0.022139
     4  H    0.366526  -0.022139
 Sum of Mulliken charges =   1.00000   1.00000

 Dipole moment (field-independent basis, Debye):
    X=             -0.0001    Y=             -0.0000    Z=             -0.0000  Tot=              0.0001
 Quadrupole moment (field-independent basis, Debye-Ang):
   XX=              3.6980   YY=            -12.5829   ZZ=            -11.1088
   XY=             -0.0000   XZ=              0.0000   YZ=              0.7535

 Normal termination of Gaussian 16 at Tue Nov 19 13:17:43 2024.
