 Gaussian 16, Revision A.03,
 Gaussian 16:  ES64L-G16RevA.03 25-Dec-2016

 --------------------------------------------
 #p opt UM062X/6-311+G** nosymm int=superfine
 --------------------------------------------

 -------------------
 Title Card Required
 -------------------
 Symbolic Z-matrix:
 Charge =  0 Multiplicity = 1

 SCF Done:  E(UM062X) =  -379.560879529     A.U. after   16 cycles
 SCF Done:  E(UM062X) =  -379.562308891     A.U. after   11 cycles
 SCF Done:  E(UM062X) =  -379.562315122     A.U. after   10 cycles
 Optimization completed.
    -- Stationary point found.

                          Input orientation:
 ---------------------------------------------------------------------
 Center     Atomic      Atomic             Coordinates (Angstroms)
 Number     Number       Type             X           Y           Z
 ---------------------------------------------------------------------
      1          6           0       -1.940377    0.000000    0.000000
      2         15           0        1.940377    0.000000    0.000000
      3          1           0       -3.063224   -0.000000    0.000000
 ---------------------------------------------------------------------

 Alpha  occ. eigenvalues --  -78.06961 -10.72108  -6.88872  -5.00787  -4.99846
 Alpha  occ. eigenvalues --   -4.99846  -0.76858  -0.60311  -0.42521  -0.23526
 Alpha  occ. eigenvalues --   -0.23526
 Alpha virt. eigenvalues --   -0.15695  -0.15695  -0.11698   0.01068   0.04136
 Alpha virt. eigenvalues --    0.05975   0.05975   0.07656   0.08411   0.08411
 Alpha virt. eigenvalues --    0.12984   0.15990   0.32984   0.33456   0.33456

  Beta  occ. eigenvalues --  -78.06961 -10.72108  -6.88872  -5.00787  -4.99846
  Beta  occ. eigenvalues --   -4.99846  -0.76858  -0.60311  -0.42521  -0.23526
  Beta  occ. eigenvalues --   -0.23526
  Beta virt. eigenvalues --   -0.15695  -0.15695  -0.11698   0.01068   0.04136
  Beta virt. eigenvalues --    0.05975   0.05975   0.07656   0.08411   0.08411
  Beta virt. eigenvalues --    0.12984   0.15990   0.32984   0.33456   0.33456

 Mulliken charges and spin densities:
               1          2
     1  C   -0.089896   0.000000
     2  P   -0.073506  -0.000000
     3  H    0.163402  -0.000000
 Sum of Mulliken charges =  -0.00000  -0.00000

 Dipole moment (field-independent basis, Debye):
    X=             -3.4063    Y=             -0.0000    Z=              0.0000  Tot=              3.4063
 Quadrupole moment (field-independent basis, Debye-Ang):
   XX=            -10.0289   YY=            -24.1770   ZZ=            -24.1770
   XY=             -0.0000   XZ=              0.0000   YZ=              0.0000

 Normal termination of Gaussian 16 at Mon Apr 21 19:30:53 2025.
