 Gaussian 16, Revision A.03,
 Gaussian 16:  ES64L-G16RevA.03 25-Dec-2016

 --------------------------------------------
 #p opt UM062X/6-311+G** nosymm int=superfine
 --------------------------------------------

 -------------------
 Title Card Required
 -------------------
 Symbolic Z-matrix:
 Charge =  0 Multiplicity = 1

 SCF Done:  E(UM062X) =  -83.1260306689     A.U. after   10 cycles
 SCF Done:  E(UM062X) =  -83.1409532299     A.U. after    9 cycles
 SCF Done:  E(UM062X) =  -83.1439736803     A.U. after    9 cycles
 SCF Done:  E(UM062X) =  -83.1439923822     A.U. after    7 cycles
 Optimization completed.
    -- Stationary point found.

                          Input orientation:
 ---------------------------------------------------------------------
 Center     Atomic      Atomic             Coordinates (Angstroms)
 Number     Number       Type             X           Y           Z
 ---------------------------------------------------------------------
      1          5           0       -1.677429    0.000000    0.000000
      2          7           0        1.677429    0.000000    0.000000
      3          1           0        2.039568   -0.945964    0.000001
      4          1           0       -1.698127   -0.594131    1.029031
      5          1           0        2.039457    0.473036   -0.819251
      6          1           0        2.039445    0.473032    0.819259
      7          1           0       -1.698135    1.188229    0.000015
      8          1           0       -1.698143   -0.594107   -1.029044
 ---------------------------------------------------------------------

 Alpha  occ. eigenvalues --  -14.73448  -7.03773  -0.96591  -0.56949  -0.54445
 Alpha  occ. eigenvalues --   -0.54445  -0.39384  -0.39383  -0.34803
 Alpha virt. eigenvalues --   -0.01556   0.02287   0.04818   0.04818   0.05565
 Alpha virt. eigenvalues --    0.08457   0.10882   0.10882   0.17636   0.17636
 Alpha virt. eigenvalues --    0.17937   0.19606   0.19606   0.23050   0.28095

  Beta  occ. eigenvalues --  -14.73448  -7.03773  -0.96591  -0.56949  -0.54445
  Beta  occ. eigenvalues --   -0.54445  -0.39384  -0.39383  -0.34803
  Beta virt. eigenvalues --   -0.01556   0.02287   0.04818   0.04818   0.05565
  Beta virt. eigenvalues --    0.08457   0.10882   0.10882   0.17636   0.17636
  Beta virt. eigenvalues --    0.17937   0.19606   0.19606   0.23050   0.28095

 Mulliken charges and spin densities:
               1          2
     1  B    0.012885  -0.000000
     2  N   -0.739015   0.000000
     3  H    0.249600  -0.000000
     4  H   -0.007557  -0.000000
     5  H    0.249601  -0.000000
     6  H    0.249601  -0.000000
     7  H   -0.007558  -0.000000
     8  H   -0.007557   0.000000
 Sum of Mulliken charges =  -0.00000  -0.00000

 Dipole moment (field-independent basis, Debye):
    X=              2.1325    Y=              0.0002    Z=              0.0000  Tot=              2.1325
 Quadrupole moment (field-independent basis, Debye-Ang):
   XX=            -11.0265   YY=            -15.6963   ZZ=            -15.6964
   XY=              0.0000   XZ=             -0.0000   YZ=              0.0000

 Normal termination of Gaussian 16 at Mon Apr 21 17:34:35 2025.
