 Gaussian 16, Revision A.03,
 Gaussian 16:  ES64L-G16RevA.03 25-Dec-2016

 ---------------------------------------
 #p UM062X/6-311+G** force int=superfine
 ---------------------------------------

 -------------------
 Title Card Required
 -------------------
 Symbolic Z-matrix:
 Charge =  0 Multiplicity = 1

                         Standard orientation:
 ---------------------------------------------------------------------
 Center     Atomic      Atomic             Coordinates (Angstroms)
 Number     Number       Type             X           Y           Z
 ---------------------------------------------------------------------
      1          6           0        1.015570   -0.000001   -0.000001
      2          6           0       -1.015569    0.000001    0.000000
      3          1           0       -1.302503   -0.453166    0.943330
      4          1           0        1.302505    0.590404    0.864095
      5          1           0       -1.302508   -0.590403   -0.864093
      6          1           0       -1.302569    1.043511   -0.079232
      7          1           0        1.302502    0.453165   -0.943331
      8          1           0        1.302570   -1.043510    0.079232
 ---------------------------------------------------------------------

 SCF Done:  E(UM062X) =  -79.7396014170     A.U. after    9 cycles

 The electronic state is 1-A.
 Alpha  occ. eigenvalues --  -10.54595 -10.54585  -0.79010  -0.72590  -0.48400
 Alpha  occ. eigenvalues --   -0.48399  -0.44374  -0.44373  -0.33142
 Alpha virt. eigenvalues --    0.02337   0.02568   0.05632   0.05632   0.08485
 Alpha virt. eigenvalues --    0.08485   0.09512   0.11069   0.13738   0.18199
 Alpha virt. eigenvalues --    0.18200   0.22033   0.22033   0.24298   0.26974

  Beta  occ. eigenvalues --  -10.54595 -10.54585  -0.79010  -0.72590  -0.48400
  Beta  occ. eigenvalues --   -0.48399  -0.44374  -0.44373  -0.33142
  Beta virt. eigenvalues --    0.02337   0.02568   0.05632   0.05632   0.08485
  Beta virt. eigenvalues --    0.08485   0.09512   0.11069   0.13738   0.18199
  Beta virt. eigenvalues --    0.18200   0.22033   0.22033   0.24298   0.26974

 Mulliken charges and spin densities:
               1          2
     1  C   -0.498152  -0.000000
     2  C   -0.498152   0.000000
     3  H    0.166051  -0.000000
     4  H    0.166051   0.000000
     5  H    0.166051  -0.000000
     6  H    0.166050  -0.000000
     7  H    0.166051   0.000000
     8  H    0.166050   0.000000
 Sum of Mulliken charges =  -0.00000   0.00000

 Dipole moment (field-independent basis, Debye):
    X=              0.0000    Y=             -0.0000    Z=              0.0000  Tot=              0.0000
 Quadrupole moment (field-independent basis, Debye-Ang):
   XX=            -15.5932   YY=            -14.8768   ZZ=            -14.8770
   XY=             -0.0001   XZ=              0.0000   YZ=             -0.0000

 Normal termination of Gaussian 16 at Tue Nov 19 12:51:04 2024.
