 Gaussian 16, Revision A.03,
 Gaussian 16:  ES64L-G16RevA.03 25-Dec-2016

 ---------------------------------------
 #p UM062X/6-311+G** force int=superfine
 ---------------------------------------

 -------------------
 Title Card Required
 -------------------
 Symbolic Z-matrix:
 Charge =  1 Multiplicity = 2

                         Standard orientation:
 ---------------------------------------------------------------------
 Center     Atomic      Atomic             Coordinates (Angstroms)
 Number     Number       Type             X           Y           Z
 ---------------------------------------------------------------------
      1          6           0       -0.000000    0.000000    0.726971
      2          6           0       -0.000000    0.000000   -0.726971
      3          1           0        0.000000    0.000000    1.814646
      4          1           0        0.000000    0.000000   -1.814645
 ---------------------------------------------------------------------

 SCF Done:  E(UM062X) =  -76.8475576535     A.U. after   10 cycles

 Unable to determine electronic state:  an orbital has unidentified symmetry.
 Alpha  occ. eigenvalues --  -10.97473 -10.97399  -1.15837  -0.98303  -0.87530
 Alpha  occ. eigenvalues --   -0.67774  -0.65426
 Alpha virt. eigenvalues --   -0.32304  -0.30286  -0.19538  -0.14350  -0.11117
 Alpha virt. eigenvalues --   -0.09661  -0.09516  -0.09415  -0.05141  -0.04776
 Alpha virt. eigenvalues --    0.02038   0.04318   0.11244   0.20577   0.30957

  Beta  occ. eigenvalues --  -10.97235 -10.97179  -1.11476  -0.96640  -0.86931
  Beta  occ. eigenvalues --   -0.63169
  Beta virt. eigenvalues --   -0.43284  -0.28595  -0.24931  -0.17750  -0.15485
  Beta virt. eigenvalues --   -0.11390  -0.09981  -0.09757  -0.09520  -0.04857
  Beta virt. eigenvalues --   -0.04424   0.01466   0.04471   0.11798   0.21486

 Mulliken charges and spin densities:
               1          2
     1  C    0.161337   0.520233
     2  C    0.161336   0.520233
     3  H    0.338664  -0.020233
     4  H    0.338663  -0.020233
 Sum of Mulliken charges =   1.00000   1.00000

 Dipole moment (field-independent basis, Debye):
    X=              0.0000    Y=              0.0000    Z=              0.0000  Tot=              0.0000
 Quadrupole moment (field-independent basis, Debye-Ang):
   XX=            -10.1636   YY=            -12.1220   ZZ=              1.0861
   XY=              0.0000   XZ=              0.0000   YZ=             -0.0000

 Normal termination of Gaussian 16 at Tue Nov 19 13:33:38 2024.
