 Gaussian 16, Revision A.03,
 Gaussian 16:  ES64L-G16RevA.03 25-Dec-2016

 --------------------------------------------
 #p opt UM062X/6-311+G** nosymm int=superfine
 --------------------------------------------

 -------------------
 Title Card Required
 -------------------
 Symbolic Z-matrix:
 Charge =  0 Multiplicity = 1

 SCF Done:  E(UM062X) =  -579.878866024     A.U. after   10 cycles
 SCF Done:  E(UM062X) =  -579.881609997     A.U. after   10 cycles
 SCF Done:  E(UM062X) =  -579.881614475     A.U. after   10 cycles
 Optimization completed.
    -- Stationary point found.

                          Input orientation:
 ---------------------------------------------------------------------
 Center     Atomic      Atomic             Coordinates (Angstroms)
 Number     Number       Type             X           Y           Z
 ---------------------------------------------------------------------
      1         14           0       -2.228705    0.000000    0.000000
      2         14           0        2.228705    0.000000    0.000000
      3          1           0       -3.753080   -0.000028   -0.000000
      4          1           0        3.753080    0.000040   -0.000000
 ---------------------------------------------------------------------

 Alpha  occ. eigenvalues --  -67.04545 -67.04545  -5.58974  -5.58972  -3.90085
 Alpha  occ. eigenvalues --   -3.90085  -3.89633  -3.89633  -3.89491  -3.89490
 Alpha  occ. eigenvalues --   -0.54986  -0.54743  -0.33521  -0.31716  -0.17728
 Alpha virt. eigenvalues --   -0.10927  -0.09137  -0.08332   0.02252   0.02925
 Alpha virt. eigenvalues --    0.04499   0.05661   0.05921   0.06080   0.06328
 Alpha virt. eigenvalues --    0.07053   0.08432   0.15839   0.29010   0.29592

  Beta  occ. eigenvalues --  -67.04545 -67.04545  -5.58974  -5.58972  -3.90085
  Beta  occ. eigenvalues --   -3.90085  -3.89633  -3.89633  -3.89491  -3.89490
  Beta  occ. eigenvalues --   -0.54986  -0.54743  -0.33521  -0.31716  -0.17728
  Beta virt. eigenvalues --   -0.10927  -0.09137  -0.08332   0.02252   0.02925
  Beta virt. eigenvalues --    0.04499   0.05661   0.05921   0.06080   0.06328
  Beta virt. eigenvalues --    0.07053   0.08432   0.15839   0.29010   0.29592

 Mulliken charges and spin densities:
               1          2
     1  Si   0.150651   0.000000
     2  Si   0.150651  -0.000000
     3  H   -0.150651  -0.000000
     4  H   -0.150651   0.000000
 Sum of Mulliken charges =  -0.00000   0.00000

 Dipole moment (field-independent basis, Debye):
    X=             -0.0000    Y=              0.0000    Z=             -0.0000  Tot=              0.0000
 Quadrupole moment (field-independent basis, Debye-Ang):
   XX=            -30.3805   YY=            -24.2682   ZZ=            -35.6637
   XY=             -0.0002   XZ=              0.0000   YZ=             -0.0103

 Normal termination of Gaussian 16 at Mon Apr 21 21:26:40 2025.
