 Gaussian 16, Revision A.03,
 Gaussian 16:  ES64L-G16RevA.03 25-Dec-2016

 ---------------------------------------
 #p UM062X/6-311+G** force int=superfine
 ---------------------------------------

 -------------------
 Title Card Required
 -------------------
 Symbolic Z-matrix:
 Charge =  0 Multiplicity = 1

                         Standard orientation:
 ---------------------------------------------------------------------
 Center     Atomic      Atomic             Coordinates (Angstroms)
 Number     Number       Type             X           Y           Z
 ---------------------------------------------------------------------
      1          6           0       -0.012858   -0.118268    1.100790
      2          6           0        0.012858    0.118268   -1.100790
      3          1           0        0.442419   -0.813268   -1.448884
      4          1           0       -0.636721   -0.990702    1.252792
      5          1           0        0.636720    0.990703   -1.252795
      6          1           0       -1.031802    0.257986   -1.351015
      7          1           0       -0.442420    0.813268    1.448883
      8          1           0        1.031802   -0.257987    1.351018
 ---------------------------------------------------------------------

 SCF Done:  E(UM062X) =  -79.7126520574     A.U. after    8 cycles

 The electronic state is 1-A.
 Alpha  occ. eigenvalues --  -10.55165 -10.55158  -0.78109  -0.73373  -0.48271
 Alpha  occ. eigenvalues --   -0.48271  -0.45373  -0.45373  -0.30679
 Alpha virt. eigenvalues --    0.00909   0.02423   0.05595   0.05595   0.08375
 Alpha virt. eigenvalues --    0.08375   0.08449   0.09781   0.13291   0.18168
 Alpha virt. eigenvalues --    0.18168   0.22103   0.22103   0.24354   0.26596

  Beta  occ. eigenvalues --  -10.55165 -10.55158  -0.78109  -0.73373  -0.48271
  Beta  occ. eigenvalues --   -0.48271  -0.45373  -0.45373  -0.30679
  Beta virt. eigenvalues --    0.00909   0.02423   0.05595   0.05595   0.08375
  Beta virt. eigenvalues --    0.08375   0.08449   0.09781   0.13291   0.18168
  Beta virt. eigenvalues --    0.18168   0.22103   0.22103   0.24354   0.26596

 Mulliken charges and spin densities:
               1          2
     1  C   -0.504190   0.000000
     2  C   -0.504191  -0.000000
     3  H    0.168064  -0.000000
     4  H    0.168063  -0.000000
     5  H    0.168064  -0.000000
     6  H    0.168064  -0.000000
     7  H    0.168064  -0.000000
     8  H    0.168063  -0.000000
 Sum of Mulliken charges =  -0.00000  -0.00000

 Dipole moment (field-independent basis, Debye):
    X=             -0.0000    Y=             -0.0000    Z=              0.0000  Tot=              0.0000
 Quadrupole moment (field-independent basis, Debye-Ang):
   XX=            -14.8386   YY=            -14.8466   ZZ=            -15.5458
   XY=             -0.0009   XZ=              0.0083   YZ=              0.0760

 Normal termination of Gaussian 16 at Tue Nov 19 12:53:55 2024.
