 Gaussian 16, Revision A.03,
 Gaussian 16:  ES64L-G16RevA.03 25-Dec-2016

 --------------------------------------------
 #p opt UM062X/6-311+G** nosymm int=superfine
 --------------------------------------------

 -------------------
 Title Card Required
 -------------------
 Symbolic Z-matrix:
 Charge =  0 Multiplicity = 1

 SCF Done:  E(UM062X) =  -83.1194848894     A.U. after   10 cycles
 SCF Done:  E(UM062X) =  -83.1355982328     A.U. after    9 cycles
 SCF Done:  E(UM062X) =  -83.1393918714     A.U. after    8 cycles
 SCF Done:  E(UM062X) =  -83.1394222807     A.U. after    7 cycles
 Optimization completed.
    -- Stationary point found.

                          Input orientation:
 ---------------------------------------------------------------------
 Center     Atomic      Atomic             Coordinates (Angstroms)
 Number     Number       Type             X           Y           Z
 ---------------------------------------------------------------------
      1          5           0       -2.252429    0.000000    0.000000
      2          7           0        2.252429    0.000000    0.000000
      3          1           0        2.616992   -0.945076    0.000002
      4          1           0       -2.259970   -0.593880    1.028596
      5          1           0        2.616896    0.472584   -0.818479
      6          1           0        2.616883    0.472582    0.818486
      7          1           0       -2.260030    1.187726    0.000014
      8          1           0       -2.259987   -0.593859   -1.028608
 ---------------------------------------------------------------------

 Alpha  occ. eigenvalues --  -14.72639  -7.04598  -0.95947  -0.57877  -0.53778
 Alpha  occ. eigenvalues --   -0.53778  -0.40273  -0.40272  -0.33969
 Alpha virt. eigenvalues --   -0.02574   0.02717   0.04714   0.04714   0.04755
 Alpha virt. eigenvalues --    0.08555   0.10525   0.10525   0.16377   0.18089
 Alpha virt. eigenvalues --    0.18089   0.18854   0.18854   0.21428   0.27503

  Beta  occ. eigenvalues --  -14.72639  -7.04598  -0.95947  -0.57877  -0.53778
  Beta  occ. eigenvalues --   -0.53778  -0.40273  -0.40272  -0.33969
  Beta virt. eigenvalues --   -0.02574   0.02717   0.04714   0.04714   0.04755
  Beta virt. eigenvalues --    0.08555   0.10525   0.10525   0.16377   0.18089
  Beta virt. eigenvalues --    0.18089   0.18854   0.18854   0.21428   0.27503

 Mulliken charges and spin densities:
               1          2
     1  B    0.026148   0.000000
     2  N   -0.731168  -0.000000
     3  H    0.244066   0.000000
     4  H   -0.009056   0.000000
     5  H    0.244067   0.000000
     6  H    0.244067   0.000000
     7  H   -0.009066   0.000000
     8  H   -0.009056  -0.000000
 Sum of Mulliken charges =  -0.00000   0.00000

 Dipole moment (field-independent basis, Debye):
    X=              1.8581    Y=              0.0001    Z=              0.0000  Tot=              1.8581
 Quadrupole moment (field-independent basis, Debye-Ang):
   XX=             -8.8487   YY=            -15.6106   ZZ=            -15.6107
   XY=              0.0002   XZ=             -0.0000   YZ=              0.0000

 Normal termination of Gaussian 16 at Mon Apr 21 17:36:30 2025.
