 Gaussian 16, Revision A.03,
 Gaussian 16:  ES64L-G16RevA.03 25-Dec-2016

 --------------------------------------------
 #p opt UM062X/6-311+G** nosymm int=superfine
 --------------------------------------------

 -------------------
 Title Card Required
 -------------------
 Symbolic Z-matrix:
 Charge =  0 Multiplicity = 1

 SCF Done:  E(UM062X) =  -95.7447271893     A.U. after   11 cycles
 SCF Done:  E(UM062X) =  -95.7572410939     A.U. after   11 cycles
 SCF Done:  E(UM062X) =  -95.7592124319     A.U. after   11 cycles
 SCF Done:  E(UM062X) =  -95.7592356079     A.U. after    9 cycles
 SCF Done:  E(UM062X) =  -95.7592373597     A.U. after    8 cycles
 Optimization completed.
    -- Stationary point found.

                          Input orientation:
 ---------------------------------------------------------------------
 Center     Atomic      Atomic             Coordinates (Angstroms)
 Number     Number       Type             X           Y           Z
 ---------------------------------------------------------------------
      1          6           0       -1.030542    0.000000    0.000000
      2          7           0        1.030542    0.000000    0.000000
      3          1           0        1.163778   -1.006153    0.115888
      4          1           0       -1.234079    1.062576   -0.005146
      5          1           0        1.163739    0.381337    0.938275
      6          1           0       -1.234076   -0.505806   -0.934482
      7          1           0       -1.328453   -0.530944    0.896024
 ---------------------------------------------------------------------

 Alpha  occ. eigenvalues --  -14.74572 -10.58562  -0.91562  -0.77617  -0.52522
 Alpha  occ. eigenvalues --   -0.49831  -0.48036  -0.37843  -0.32399
 Alpha virt. eigenvalues --   -0.00287   0.01462   0.05141   0.05862   0.08229
 Alpha virt. eigenvalues --    0.11194   0.13719   0.16024   0.16727   0.18512
 Alpha virt. eigenvalues --    0.21299   0.22394   0.22519   0.31549   0.41987

  Beta  occ. eigenvalues --  -14.74572 -10.58562  -0.91562  -0.77617  -0.52522
  Beta  occ. eigenvalues --   -0.49831  -0.48036  -0.37843  -0.32399
  Beta virt. eigenvalues --   -0.00287   0.01462   0.05141   0.05862   0.08229
  Beta virt. eigenvalues --    0.11194   0.13719   0.16024   0.16727   0.18512
  Beta virt. eigenvalues --    0.21299   0.22394   0.22519   0.31549   0.41987

 Mulliken charges and spin densities:
               1          2
     1  C   -0.427108   0.000000
     2  N   -0.573293   0.000000
     3  H    0.236033  -0.000000
     4  H    0.180885  -0.000000
     5  H    0.236032  -0.000000
     6  H    0.180880  -0.000000
     7  H    0.166571  -0.000000
 Sum of Mulliken charges =  -0.00000   0.00000

 Dipole moment (field-independent basis, Debye):
    X=             -1.6379    Y=             -0.8771    Z=              1.4798  Tot=              2.3753
 Quadrupole moment (field-independent basis, Debye-Ang):
   XX=            -15.1308   YY=            -13.2847   ZZ=            -14.1808
   XY=             -1.2965   XZ=              2.1872   YZ=              0.8187

 Normal termination of Gaussian 16 at Mon Apr 21 18:11:30 2025.
