 Gaussian 16, Revision A.03,
 Gaussian 16:  ES64L-G16RevA.03 25-Dec-2016

 --------------------------------------------
 #p opt UM062X/6-311+G** nosymm int=superfine
 --------------------------------------------

 -------------------
 Title Card Required
 -------------------
 Symbolic Z-matrix:
 Charge =  0 Multiplicity = 1

 SCF Done:  E(UM062X) =  -684.995347535     A.U. after   11 cycles
 SCF Done:  E(UM062X) =  -684.997375621     A.U. after   10 cycles
 SCF Done:  E(UM062X) =  -684.998131635     A.U. after   10 cycles
 SCF Done:  E(UM062X) =  -684.998180929     A.U. after    9 cycles
 SCF Done:  E(UM062X) =  -684.998201673     A.U. after   10 cycles
 SCF Done:  E(UM062X) =  -684.998213660     A.U. after    9 cycles
 SCF Done:  E(UM062X) =  -684.998241082     A.U. after   10 cycles
 SCF Done:  E(UM062X) =  -684.998300990     A.U. after   11 cycles
 SCF Done:  E(UM062X) =  -684.998297336     A.U. after    9 cycles
 SCF Done:  E(UM062X) =  -684.998341931     A.U. after   10 cycles
 SCF Done:  E(UM062X) =  -684.998428513     A.U. after   11 cycles
 SCF Done:  E(UM062X) =  -684.998434978     A.U. after   10 cycles
 SCF Done:  E(UM062X) =  -684.998429364     A.U. after   11 cycles
 SCF Done:  E(UM062X) =  -684.998438208     A.U. after    9 cycles
 SCF Done:  E(UM062X) =  -684.998432180     A.U. after   10 cycles
 SCF Done:  E(UM062X) =  -684.998444583     A.U. after    8 cycles
 SCF Done:  E(UM062X) =  -684.998443830     A.U. after    8 cycles
 SCF Done:  E(UM062X) =  -684.998445101     A.U. after    8 cycles
 SCF Done:  E(UM062X) =  -684.998445043     A.U. after    7 cycles
 SCF Done:  E(UM062X) =  -684.998445106     A.U. after    7 cycles
 Optimization completed.
    -- Stationary point found.

                          Input orientation:
 ---------------------------------------------------------------------
 Center     Atomic      Atomic             Coordinates (Angstroms)
 Number     Number       Type             X           Y           Z
 ---------------------------------------------------------------------
      1         15           0       -1.542217    0.000000    0.000000
      2         15           0        1.542217    0.000000    0.000000
      3          1           0        1.521858   -0.948504    1.053884
      4          1           0       -1.522901    1.019063    0.986019
      5          1           0        1.522795   -1.019076   -0.986007
      6          1           0       -1.521862    0.948533   -1.053867
 ---------------------------------------------------------------------

 Alpha  occ. eigenvalues --  -78.04451 -78.04451  -6.86800  -6.86799  -4.98346
 Alpha  occ. eigenvalues --   -4.98345  -4.98253  -4.98253  -4.98062  -4.98062
 Alpha  occ. eigenvalues --   -0.71999  -0.69469  -0.45339  -0.44059  -0.36457
 Alpha  occ. eigenvalues --   -0.35632  -0.28545
 Alpha virt. eigenvalues --   -0.08816   0.01519   0.03170   0.03347   0.04176
 Alpha virt. eigenvalues --    0.04702   0.05355   0.06186   0.06346   0.06798
 Alpha virt. eigenvalues --    0.08957   0.16501   0.18755   0.28291   0.28506

  Beta  occ. eigenvalues --  -78.04451 -78.04451  -6.86800  -6.86799  -4.98346
  Beta  occ. eigenvalues --   -4.98345  -4.98253  -4.98253  -4.98062  -4.98062
  Beta  occ. eigenvalues --   -0.71999  -0.69469  -0.45339  -0.44059  -0.36457
  Beta  occ. eigenvalues --   -0.35632  -0.28545
  Beta virt. eigenvalues --   -0.08816   0.01519   0.03170   0.03347   0.04176
  Beta virt. eigenvalues --    0.04702   0.05355   0.06186   0.06346   0.06798
  Beta virt. eigenvalues --    0.08957   0.16501   0.18755   0.28291   0.28506

 Mulliken charges and spin densities:
               1          2
     1  P   -0.041322  -0.000000
     2  P   -0.041310   0.000000
     3  H    0.020658  -0.000000
     4  H    0.020658   0.000000
     5  H    0.020658  -0.000000
     6  H    0.020658  -0.000000
 Sum of Mulliken charges =   0.00000   0.00000

 Dipole moment (field-independent basis, Debye):
    X=             -0.0000    Y=             -0.0000    Z=              0.0000  Tot=              0.0000
 Quadrupole moment (field-independent basis, Debye-Ang):
   XX=            -29.9031   YY=            -31.0339   ZZ=            -28.2421
   XY=             -3.6304   XZ=              0.1238   YZ=              0.0962

 Normal termination of Gaussian 16 at Mon Apr 21 20:48:20 2025.
