 Gaussian 16, Revision A.03,
 Gaussian 16:  ES64L-G16RevA.03 25-Dec-2016

 --------------------------------------------
 #p opt UM062X/6-311+G** nosymm int=superfine
 --------------------------------------------

 -------------------
 Title Card Required
 -------------------
 Symbolic Z-matrix:
 Charge =  0 Multiplicity = 1

 SCF Done:  E(UM062X) =  -797.448575208     A.U. after   13 cycles
 SCF Done:  E(UM062X) =  -797.449742240     A.U. after   12 cycles
 SCF Done:  E(UM062X) =  -797.450618303     A.U. after   13 cycles
 SCF Done:  E(UM062X) =  -797.450644305     A.U. after   11 cycles
 SCF Done:  E(UM062X) =  -797.450644564     A.U. after   10 cycles
 SCF Done:  E(UM062X) =  -797.450644592     A.U. after   10 cycles
 Optimization completed.
    -- Stationary point found.

                          Input orientation:
 ---------------------------------------------------------------------
 Center     Atomic      Atomic             Coordinates (Angstroms)
 Number     Number       Type             X           Y           Z
 ---------------------------------------------------------------------
      1         16           0       -1.618191    0.000000    0.000000
      2         16           0        1.618191    0.000000    0.000000
      3          1           0       -1.550025   -1.334072   -0.164136
      4          1           0        1.550926    0.192457    1.330424
 ---------------------------------------------------------------------

 Alpha  occ. eigenvalues --  -89.94776 -89.94775  -8.30923  -8.30922  -6.23084
 Alpha  occ. eigenvalues --   -6.23084  -6.22814  -6.22814  -6.22257  -6.22256
 Alpha  occ. eigenvalues --   -0.82213  -0.80496  -0.47343  -0.47322  -0.34521
 Alpha  occ. eigenvalues --   -0.33519  -0.33112
 Alpha virt. eigenvalues --   -0.17929   0.01964   0.03144   0.04586   0.05031
 Alpha virt. eigenvalues --    0.06274   0.07173   0.07385   0.07516   0.10983
 Alpha virt. eigenvalues --    0.13164   0.30362   0.31150   0.32542   0.35830

  Beta  occ. eigenvalues --  -89.94776 -89.94775  -8.30923  -8.30922  -6.23084
  Beta  occ. eigenvalues --   -6.23084  -6.22814  -6.22814  -6.22257  -6.22256
  Beta  occ. eigenvalues --   -0.82213  -0.80496  -0.47343  -0.47322  -0.34521
  Beta  occ. eigenvalues --   -0.33519  -0.33112
  Beta virt. eigenvalues --   -0.17929   0.01964   0.03144   0.04586   0.05031
  Beta virt. eigenvalues --    0.06274   0.07173   0.07385   0.07516   0.10983
  Beta virt. eigenvalues --    0.13164   0.30362   0.31150   0.32542   0.35830

 Mulliken charges and spin densities:
               1          2
     1  S   -0.087789   0.000000
     2  S   -0.087865  -0.000000
     3  H    0.087822  -0.000000
     4  H    0.087833   0.000000
 Sum of Mulliken charges =  -0.00000   0.00000

 Dipole moment (field-independent basis, Debye):
    X=              0.0006    Y=             -0.9220    Z=              0.9417  Tot=              1.3179
 Quadrupole moment (field-independent basis, Debye-Ang):
   XX=            -25.2002   YY=            -27.9829   ZZ=            -28.0287
   XY=              2.1806   XZ=              2.1361   YZ=              1.0774

 Normal termination of Gaussian 16 at Mon Apr 21 21:15:55 2025.
