 Gaussian 16, Revision A.03,
 Gaussian 16:  ES64L-G16RevA.03 25-Dec-2016

 --------------------------------------------
 #p opt UM062X/6-311+G** nosymm int=superfine
 --------------------------------------------

 -------------------
 Title Card Required
 -------------------
 Symbolic Z-matrix:
 Charge =  0 Multiplicity = 2

 SCF Done:  E(UM062X) =  -291.199197989     A.U. after   11 cycles
 SCF Done:  E(UM062X) =  -291.204215634     A.U. after   12 cycles
 SCF Done:  E(UM062X) =  -291.204333561     A.U. after    9 cycles
 SCF Done:  E(UM062X) =  -291.204333173     A.U. after    9 cycles
 SCF Done:  E(UM062X) =  -291.204340598     A.U. after    8 cycles
 Optimization completed.
    -- Stationary point found.

                          Input orientation:
 ---------------------------------------------------------------------
 Center     Atomic      Atomic             Coordinates (Angstroms)
 Number     Number       Type             X           Y           Z
 ---------------------------------------------------------------------
      1         14           0        1.184462    0.000122    0.000221
      2          1           0        1.638579   -1.407906   -0.000552
      3          1           0        1.638520    0.703526   -1.219548
      4          1           0        1.636841    0.704365    1.220023
 ---------------------------------------------------------------------

 Alpha  occ. eigenvalues --  -67.00199  -5.55142  -3.86869  -3.86122  -3.86122
 Alpha  occ. eigenvalues --   -0.61413  -0.41429  -0.41412  -0.26394
 Alpha virt. eigenvalues --    0.03333   0.03834   0.03835   0.05015   0.07705
 Alpha virt. eigenvalues --    0.07720   0.11478   0.29323   0.29326   0.31010
 Alpha virt. eigenvalues --    0.37840   0.40656   0.40679   0.48633   0.56811

  Beta  occ. eigenvalues --  -66.99630  -5.54818  -3.85913  -3.85913  -3.85469
  Beta  occ. eigenvalues --   -0.58480  -0.40777  -0.40760
  Beta virt. eigenvalues --   -0.08857   0.01459   0.03806   0.03810   0.08200
  Beta virt. eigenvalues --    0.08207   0.08219   0.12180   0.28160   0.28481
  Beta virt. eigenvalues --    0.28484   0.38663   0.40292   0.40318   0.47608

 Mulliken charges and spin densities:
               1          2
     1  Si   0.299497   1.015372
     2  H   -0.099844  -0.005154
     3  H   -0.099848  -0.005149
     4  H   -0.099805  -0.005068
 Sum of Mulliken charges =  -0.00000   1.00000

 Dipole moment (field-independent basis, Debye):
    X=             -0.1691    Y=              0.0008    Z=              0.0015  Tot=              0.1691
 Quadrupole moment (field-independent basis, Debye-Ang):
   XX=            -16.5879   YY=            -15.9600   ZZ=            -15.9593
   XY=              0.0012   XZ=              0.0023   YZ=              0.0006

 Normal termination of Gaussian 16 at Wed Apr 16 08:54:43 2025.
