 Gaussian 16, Revision A.03,
 Gaussian 16:  ES64L-G16RevA.03 25-Dec-2016

 ---------------------------------------
 #p UM062X/6-311+G** force int=superfine
 ---------------------------------------

 -------------------
 Title Card Required
 -------------------
 Symbolic Z-matrix:
 Charge =  1 Multiplicity = 2

                         Standard orientation:
 ---------------------------------------------------------------------
 Center     Atomic      Atomic             Coordinates (Angstroms)
 Number     Number       Type             X           Y           Z
 ---------------------------------------------------------------------
      1          6           0       -0.000000    0.650341    0.000000
      2          6           0       -0.000000   -0.650341    0.000000
      3          1           0        0.924768    1.224425    0.000000
      4          1           0       -0.924625    1.224522   -0.000000
      5          1           0       -0.924768   -1.224425    0.000000
      6          1           0        0.924625   -1.224522   -0.000000
 ---------------------------------------------------------------------

 SCF Done:  E(UM062X) =  -78.1710930917     A.U. after    9 cycles

 The electronic state is 2-AU.
 Alpha  occ. eigenvalues --  -10.88776 -10.88633  -1.22333  -0.97161  -0.86273
 Alpha  occ. eigenvalues --   -0.81714  -0.71294  -0.69828
 Alpha virt. eigenvalues --   -0.27281  -0.14779  -0.13107  -0.12481  -0.10114
 Alpha virt. eigenvalues --   -0.07916  -0.06712  -0.04921  -0.04341  -0.02892
 Alpha virt. eigenvalues --   -0.00247   0.02764   0.11339   0.11798   0.21097

  Beta  occ. eigenvalues --  -10.88533 -10.88405  -1.18067  -0.95282  -0.84998
  Beta  occ. eigenvalues --   -0.80802  -0.71004
  Beta virt. eigenvalues --   -0.44070  -0.20700  -0.16487  -0.13086  -0.12460
  Beta virt. eigenvalues --   -0.10731  -0.08837  -0.06767  -0.04804  -0.03327
  Beta virt. eigenvalues --   -0.02463  -0.00517   0.02880   0.11795   0.12704

 Mulliken charges and spin densities:
               1          2
     1  C   -0.047467   0.537019
     2  C   -0.047467   0.537019
     3  H    0.273730  -0.018511
     4  H    0.273736  -0.018508
     5  H    0.273730  -0.018511
     6  H    0.273736  -0.018508
 Sum of Mulliken charges =   1.00000   1.00000

 Dipole moment (field-independent basis, Debye):
    X=             -0.0000    Y=              0.0000    Z=              0.0000  Tot=              0.0000
 Quadrupole moment (field-independent basis, Debye-Ang):
   XX=             -8.4906   YY=             -6.0010   ZZ=            -11.2443
   XY=             -0.0000   XZ=             -0.0000   YZ=             -0.0000

 Normal termination of Gaussian 16 at Tue Nov 19 11:53:39 2024.
