 Gaussian 16, Revision A.03,
 Gaussian 16:  ES64L-G16RevA.03 25-Dec-2016

 --------------------------------------------
 #p opt UM062X/6-311+G** nosymm int=superfine
 --------------------------------------------

 -------------------
 Title Card Required
 -------------------
 Symbolic Z-matrix:
 Charge =  0 Multiplicity = 1

 SCF Done:  E(UM062X) =  -76.9262658729     A.U. after   10 cycles
 SCF Done:  E(UM062X) =  -76.9710227374     A.U. after    9 cycles
 SCF Done:  E(UM062X) =  -77.0384032725     A.U. after   10 cycles
 SCF Done:  E(UM062X) =  -77.0663536423     A.U. after   10 cycles
 SCF Done:  E(UM062X) =  -77.0665560179     A.U. after    8 cycles
 Optimization completed.
    -- Stationary point found.

                          Input orientation:
 ---------------------------------------------------------------------
 Center     Atomic      Atomic             Coordinates (Angstroms)
 Number     Number       Type             X           Y           Z
 ---------------------------------------------------------------------
      1          6           0       -0.867847    0.000000    0.000000
      2          6           0        0.867847    0.000000    0.000000
      3          1           0       -1.945516   -0.000010   -0.000011
      4          1           0        1.945481   -0.000001   -0.000001
 ---------------------------------------------------------------------

 Alpha  occ. eigenvalues --  -10.66395 -10.66366  -0.77406  -0.69942  -0.52590
 Alpha  occ. eigenvalues --   -0.29945  -0.29945
 Alpha virt. eigenvalues --   -0.05200  -0.05200  -0.01012   0.02294   0.05065
 Alpha virt. eigenvalues --    0.08468   0.08468   0.09592   0.10980   0.10980
 Alpha virt. eigenvalues --    0.17518   0.22397   0.26932   0.46837   0.58361

  Beta  occ. eigenvalues --  -10.66395 -10.66366  -0.77406  -0.69942  -0.52590
  Beta  occ. eigenvalues --   -0.29945  -0.29945
  Beta virt. eigenvalues --   -0.05200  -0.05200  -0.01012   0.02294   0.05065
  Beta virt. eigenvalues --    0.08468   0.08468   0.09592   0.10980   0.10980
  Beta virt. eigenvalues --    0.17518   0.22397   0.26932   0.46837   0.58361

 Mulliken charges and spin densities:
               1          2
     1  C   -0.249908   0.000000
     2  C   -0.249909  -0.000000
     3  H    0.249914  -0.000000
     4  H    0.249904  -0.000000
 Sum of Mulliken charges =  -0.00000  -0.00000

 Dipole moment (field-independent basis, Debye):
    X=             -0.0001    Y=             -0.0000    Z=             -0.0000  Tot=              0.0001
 Quadrupole moment (field-independent basis, Debye-Ang):
   XX=             -4.8163   YY=            -15.8902   ZZ=            -15.8902
   XY=              0.0000   XZ=              0.0000   YZ=              0.0000

 Normal termination of Gaussian 16 at Tue Dec  3 20:16:09 2024.
