 Gaussian 16, Revision A.03,
 Gaussian 16:  ES64L-G16RevA.03 25-Dec-2016

 --------------------------------------------
 #p opt UM062X/6-311+G** nosymm int=superfine
 --------------------------------------------

 -------------------
 Title Card Required
 -------------------
 Symbolic Z-matrix:
 Charge =  0 Multiplicity = 1

 SCF Done:  E(UM062X) =  -79.6092672641     A.U. after   10 cycles
 SCF Done:  E(UM062X) =  -79.6113705044     A.U. after    9 cycles
 SCF Done:  E(UM062X) =  -79.6120035449     A.U. after    9 cycles
 SCF Done:  E(UM062X) =  -79.6120044456     A.U. after    7 cycles
 Optimization completed.
    -- Stationary point found.

                          Input orientation:
 ---------------------------------------------------------------------
 Center     Atomic      Atomic             Coordinates (Angstroms)
 Number     Number       Type             X           Y           Z
 ---------------------------------------------------------------------
      1          6           0       -1.596675    0.000000    0.000000
      2          6           0        1.596800    0.000000    0.000000
      3          1           0        1.707765   -0.930093    0.538192
      4          1           0       -1.707632   -0.931143   -0.536376
      5          1           0        1.707759    0.931143    0.536375
      6          1           0        1.707767   -0.001048   -1.074582
      7          1           0       -1.707640    0.930094   -0.538192
      8          1           0       -1.707645    0.001048    1.074582
 ---------------------------------------------------------------------

 Alpha  occ. eigenvalues --  -10.56905 -10.56903  -0.76949  -0.75989  -0.48806
 Alpha  occ. eigenvalues --   -0.48806  -0.48310  -0.48310  -0.23811
 Alpha virt. eigenvalues --   -0.08295   0.02955   0.05367   0.05367   0.05547
 Alpha virt. eigenvalues --    0.07768   0.07768   0.11128   0.12479   0.18411
 Alpha virt. eigenvalues --    0.18411   0.21090   0.21090   0.23919   0.25129

  Beta  occ. eigenvalues --  -10.56905 -10.56903  -0.76949  -0.75989  -0.48806
  Beta  occ. eigenvalues --   -0.48806  -0.48310  -0.48310  -0.23811
  Beta virt. eigenvalues --   -0.08295   0.02955   0.05367   0.05367   0.05547
  Beta virt. eigenvalues --    0.07768   0.07768   0.11128   0.12479   0.18411
  Beta virt. eigenvalues --    0.18411   0.21090   0.21090   0.23919   0.25129

 Mulliken charges and spin densities:
               1          2
     1  C   -0.525223  -0.000000
     2  C   -0.525223  -0.000000
     3  H    0.175074   0.000000
     4  H    0.175075  -0.000000
     5  H    0.175075   0.000000
     6  H    0.175074   0.000000
     7  H    0.175074   0.000000
     8  H    0.175074   0.000000
 Sum of Mulliken charges =  -0.00000   0.00000

 Dipole moment (field-independent basis, Debye):
    X=             -0.0000    Y=             -0.0000    Z=             -0.0000  Tot=              0.0000
 Quadrupole moment (field-independent basis, Debye-Ang):
   XX=            -15.4002   YY=            -14.8157   ZZ=            -14.8158
   XY=             -0.0000   XZ=             -0.0000   YZ=              0.0000

 Normal termination of Gaussian 16 at Tue Dec  3 10:01:48 2024.
