 Gaussian 16, Revision A.03,
 Gaussian 16:  ES64L-G16RevA.03 25-Dec-2016

 --------------------------------------------
 #p opt UM062X/6-311+G** nosymm int=superfine
 --------------------------------------------

 -------------------
 Title Card Required
 -------------------
 Symbolic Z-matrix:
 Charge = -1 Multiplicity = 2

 SCF Done:  E(UM062X) =  -50.5439767180     A.U. after   16 cycles
 SCF Done:  E(UM062X) =  -50.5503841952     A.U. after   11 cycles
 SCF Done:  E(UM062X) =  -50.5510347039     A.U. after   14 cycles
 Optimization completed.
    -- Stationary point found.

                          Input orientation:
 ---------------------------------------------------------------------
 Center     Atomic      Atomic             Coordinates (Angstroms)
 Number     Number       Type             X           Y           Z
 ---------------------------------------------------------------------
      1          5           0       -1.516404    0.000000    0.000000
      2          5           0        1.516404    0.000000    0.000000
      3          1           0       -2.810596   -0.000976   -0.000003
      4          1           0        2.810596    0.000976    0.000001
 ---------------------------------------------------------------------

 Alpha  occ. eigenvalues --   -6.90030  -6.90029  -0.33233  -0.32628  -0.11198
 Alpha  occ. eigenvalues --   -0.02556   0.02078
 Alpha virt. eigenvalues --    0.12420   0.12795   0.15150   0.15953   0.16528
 Alpha virt. eigenvalues --    0.22067   0.22331   0.22632   0.22659   0.24062
 Alpha virt. eigenvalues --    0.26112   0.34920   0.38366   0.53901   0.58242

  Beta  occ. eigenvalues --   -6.89950  -6.89950  -0.32136  -0.31742  -0.09942
  Beta  occ. eigenvalues --   -0.01572
  Beta virt. eigenvalues --    0.10160   0.11289   0.13251   0.13567   0.13919
  Beta virt. eigenvalues --    0.14398   0.18911   0.20426   0.20532   0.21640
  Beta virt. eigenvalues --    0.22214   0.22991   0.34559   0.38478   0.53430

 Mulliken charges and spin densities:
               1          2
     1  B   -0.393131   0.507725
     2  B   -0.393131   0.507725
     3  H   -0.106869  -0.007725
     4  H   -0.106869  -0.007725
 Sum of Mulliken charges =  -1.00000   1.00000

 Dipole moment (field-independent basis, Debye):
    X=             -0.0000    Y=             -0.0000    Z=             -0.0000  Tot=              0.0000
 Quadrupole moment (field-independent basis, Debye-Ang):
   XX=            -38.7835   YY=            -19.1430   ZZ=            -26.6312
   XY=             -0.0017   XZ=             -0.0000   YZ=              0.0137

 Normal termination of Gaussian 16 at Mon Apr 21 17:31:35 2025.
