 Gaussian 16, Revision A.03,
 Gaussian 16:  ES64L-G16RevA.03 25-Dec-2016

 ---------------------------------------------------------
 #p opt UM062X/6-311+G** nosymm int=superfine SCF=NoVarAcc
 ---------------------------------------------------------

 -------------------
 Title Card Required
 -------------------
 Symbolic Z-matrix:
 Charge =  1 Multiplicity = 2

 SCF Done:  E(UM062X) =  -76.5835918682     A.U. after   23 cycles
 SCF Done:  E(UM062X) =  -76.5839417492     A.U. after   45 cycles
 Optimization completed.
    -- Stationary point found.

                          Input orientation:
 ---------------------------------------------------------------------
 Center     Atomic      Atomic             Coordinates (Angstroms)
 Number     Number       Type             X           Y           Z
 ---------------------------------------------------------------------
      1          6           0       -4.882160    0.000000    0.000000
      2          6           0        4.882160    0.000000    0.000000
      3          1           0       -6.000077    0.000000    0.000000
      4          1           0        6.000076    0.000000    0.000000
 ---------------------------------------------------------------------

 Alpha  occ. eigenvalues --  -10.91615 -10.91615  -0.95400  -0.95395  -0.60453
 Alpha  occ. eigenvalues --   -0.60451  -0.43006
 Alpha virt. eigenvalues --   -0.40109  -0.30353  -0.30353  -0.09288  -0.09283
 Alpha virt. eigenvalues --   -0.04302  -0.04070  -0.04027  -0.03903  -0.03858
 Alpha virt. eigenvalues --   -0.03696   0.02056   0.02150   0.30158   0.30502

  Beta  occ. eigenvalues --  -10.91200 -10.91200  -0.93034  -0.93034  -0.59062
  Beta  occ. eigenvalues --   -0.59062
  Beta virt. eigenvalues --   -0.28469  -0.28469  -0.26836  -0.26836  -0.09499
  Beta virt. eigenvalues --   -0.09494  -0.04297  -0.03702  -0.03277  -0.03233
  Beta virt. eigenvalues --   -0.02352  -0.02309   0.03856   0.03964   0.29475

 Mulliken charges and spin densities:
               1          2
     1  C    0.297263   0.515530
     2  C    0.297263   0.515530
     3  H    0.202737  -0.015530
     4  H    0.202737  -0.015530
 Sum of Mulliken charges =   1.00000   1.00000

 Dipole moment (field-independent basis, Debye):
    X=             -0.0000    Y=             -0.0000    Z=             -0.0000  Tot=              0.0000
 Quadrupole moment (field-independent basis, Debye-Ang):
   XX=            141.8902   YY=             -9.6391   ZZ=            -11.2765
   XY=             -0.0000   XZ=              0.0000   YZ=             -0.5578

 Normal termination of Gaussian 16 at Tue Dec  3 17:43:59 2024.
