 Gaussian 16, Revision A.03,
 Gaussian 16:  ES64L-G16RevA.03 25-Dec-2016

 ---------------------------------------------------
 #p UM062X/6-311+G** force int=superfine pop=saveNBO
 ---------------------------------------------------

 -------------------
 Title Card Required
 -------------------
 Symbolic Z-matrix:
 Charge =  0 Multiplicity = 1

                         Standard orientation:
 ---------------------------------------------------------------------
 Center     Atomic      Atomic             Coordinates (Angstroms)
 Number     Number       Type             X           Y           Z
 ---------------------------------------------------------------------
      1         16           0        0.000000    0.000000    1.850200
      2         16           0        0.000000    0.000000   -1.850200
 ---------------------------------------------------------------------

 SCF Done:  E(UM062X) =  -796.052602443     A.U. after    9 cycles

 Unable to determine electronic state:  partially filled degenerate orbitals.
 Alpha  occ. eigenvalues --  -89.98996 -89.98996  -8.34759  -8.34758  -6.26790
 Alpha  occ. eigenvalues --   -6.26790  -6.26770  -6.26770  -6.25940  -6.25940
 Alpha  occ. eigenvalues --   -0.78397  -0.77336  -0.35070  -0.34350  -0.33467
 Alpha  occ. eigenvalues --   -0.31579
 Alpha virt. eigenvalues --   -0.23430  -0.21500   0.03018   0.03757   0.04792
 Alpha virt. eigenvalues --    0.05261   0.07113   0.07405   0.07577   0.12665
 Alpha virt. eigenvalues --    0.32031   0.32540   0.32900   0.34699   0.36154

  Beta  occ. eigenvalues --  -89.98996 -89.98996  -8.34759  -8.34758  -6.26790
  Beta  occ. eigenvalues --   -6.26790  -6.26770  -6.26770  -6.25940  -6.25940
  Beta  occ. eigenvalues --   -0.78397  -0.77336  -0.35070  -0.34350  -0.33467
  Beta  occ. eigenvalues --   -0.31579
  Beta virt. eigenvalues --   -0.23430  -0.21500   0.03018   0.03757   0.04792
  Beta virt. eigenvalues --    0.05261   0.07113   0.07405   0.07577   0.12665
  Beta virt. eigenvalues --    0.32031   0.32540   0.32900   0.34699   0.36154

 Mulliken charges and spin densities:
               1          2
     1  S    0.000000  -0.000000
     2  S    0.000000  -0.000000
 Sum of Mulliken charges =   0.00000  -0.00000

 Dipole moment (field-independent basis, Debye):
    X=              0.0000    Y=             -0.0000    Z=             -0.0000  Tot=              0.0000
 Quadrupole moment (field-independent basis, Debye-Ang):
   XX=            -25.4093   YY=            -30.3871   ZZ=            -22.5100
   XY=              0.0000   XZ=             -0.0000   YZ=              0.0000

 Summary of Natural Population Analysis:

                                       Natural Population
                Natural  -----------------------------------------------
    Atom  No    Charge         Core      Valence    Rydberg      Total
 -----------------------------------------------------------------------
      S    1   -0.00000      5.00000     2.99921    0.00079     8.00000
      S    2   -0.00000      5.00000     2.99921    0.00079     8.00000
 =======================================================================
   * Total *   -0.00000      9.99999     5.99843    0.00158    16.00000

 Normal termination of Gaussian 16 at Mon Apr 21 20:08:22 2025.
