 Gaussian 16, Revision A.03,
 Gaussian 16:  ES64L-G16RevA.03 25-Dec-2016

 --------------------------------------------
 #p opt UM062X/6-311+G** nosymm int=superfine
 --------------------------------------------

 -------------------
 Title Card Required
 -------------------
 Symbolic Z-matrix:
 Charge =  0 Multiplicity = 1

 SCF Done:  E(UM062X) =  -78.3026427228     A.U. after    8 cycles
 SCF Done:  E(UM062X) =  -78.3456664998     A.U. after    8 cycles
 SCF Done:  E(UM062X) =  -78.3846385513     A.U. after   10 cycles
 SCF Done:  E(UM062X) =  -78.3938093622     A.U. after    8 cycles
 SCF Done:  E(UM062X) =  -78.3946663277     A.U. after    8 cycles
 SCF Done:  E(UM062X) =  -78.3946769297     A.U. after    8 cycles
 Optimization completed.
    -- Stationary point found.

                          Input orientation:
 ---------------------------------------------------------------------
 Center     Atomic      Atomic             Coordinates (Angstroms)
 Number     Number       Type             X           Y           Z
 ---------------------------------------------------------------------
      1          6           0       -0.974422    0.000000    0.000000
      2          6           0        0.974422    0.000000    0.000000
      3          1           0       -1.447526   -0.969080   -0.000000
      4          1           0       -1.447499    0.969080   -0.000000
      5          1           0        1.447526    0.969080   -0.000000
      6          1           0        1.447499   -0.969080    0.000000
 ---------------------------------------------------------------------

 Alpha  occ. eigenvalues --  -10.60679 -10.60664  -0.77853  -0.71106  -0.52956
 Alpha  occ. eigenvalues --   -0.49336  -0.38816  -0.26544
 Alpha virt. eigenvalues --   -0.05932   0.02332   0.03363   0.05393   0.07388
 Alpha virt. eigenvalues --    0.09015   0.09846   0.10919   0.11454   0.15444
 Alpha virt. eigenvalues --    0.16498   0.21006   0.21209   0.28321   0.39907

  Beta  occ. eigenvalues --  -10.60679 -10.60664  -0.77853  -0.71106  -0.52956
  Beta  occ. eigenvalues --   -0.49336  -0.38816  -0.26544
  Beta virt. eigenvalues --   -0.05932   0.02332   0.03363   0.05393   0.07388
  Beta virt. eigenvalues --    0.09015   0.09846   0.10919   0.11454   0.15444
  Beta virt. eigenvalues --    0.16498   0.21006   0.21209   0.28321   0.39907

 Mulliken charges and spin densities:
               1          2
     1  C   -0.356275   0.000000
     2  C   -0.356275  -0.000000
     3  H    0.178138  -0.000000
     4  H    0.178137  -0.000000
     5  H    0.178138   0.000000
     6  H    0.178137   0.000000
 Sum of Mulliken charges =  -0.00000  -0.00000

 Dipole moment (field-independent basis, Debye):
    X=             -0.0000    Y=             -0.0000    Z=             -0.0000  Tot=              0.0000
 Quadrupole moment (field-independent basis, Debye-Ang):
   XX=            -11.3563   YY=            -12.1151   ZZ=            -18.0198
   XY=              0.0001   XZ=              0.0000   YZ=              0.0000

 Normal termination of Gaussian 16 at Tue Nov 19 11:00:42 2024.
