 Gaussian 16, Revision A.03,
 Gaussian 16:  ES64L-G16RevA.03 25-Dec-2016

 --------------------------------------------
 #p opt UM062X/6-311+G** nosymm int=superfine
 --------------------------------------------

 -------------------
 Title Card Required
 -------------------
 Symbolic Z-matrix:
 Charge =  0 Multiplicity = 1

 SCF Done:  E(UM062X) =  -110.215756754     A.U. after   13 cycles
 SCF Done:  E(UM062X) =  -110.221270263     A.U. after   12 cycles
 SCF Done:  E(UM062X) =  -110.226943587     A.U. after   13 cycles
 SCF Done:  E(UM062X) =  -110.227017582     A.U. after   11 cycles
 Optimization completed.
    -- Stationary point found.

                          Input orientation:
 ---------------------------------------------------------------------
 Center     Atomic      Atomic             Coordinates (Angstroms)
 Number     Number       Type             X           Y           Z
 ---------------------------------------------------------------------
      1          7           0       -1.465428    0.000000    0.000000
      2          7           0        1.465428    0.000000    0.000000
      3          1           0       -1.282876   -1.022243    0.000000
      4          1           0        1.282876    1.022243    0.000000
 ---------------------------------------------------------------------

 Alpha  occ. eigenvalues --  -14.88783 -14.88779  -0.93219  -0.91753  -0.49361
 Alpha  occ. eigenvalues --   -0.48492  -0.33323  -0.31041
 Alpha virt. eigenvalues --   -0.20418  -0.17933   0.05483   0.07336   0.10683
 Alpha virt. eigenvalues --    0.11793   0.13352   0.14818   0.15733   0.18535
 Alpha virt. eigenvalues --    0.19677   0.23400   0.51941   0.55313   0.70033

  Beta  occ. eigenvalues --  -14.88783 -14.88779  -0.93219  -0.91753  -0.49361
  Beta  occ. eigenvalues --   -0.48492  -0.33323  -0.31041
  Beta virt. eigenvalues --   -0.20418  -0.17933   0.05483   0.07336   0.10683
  Beta virt. eigenvalues --    0.11793   0.13352   0.14818   0.15733   0.18535
  Beta virt. eigenvalues --    0.19677   0.23400   0.51941   0.55313   0.70033

 Mulliken charges and spin densities:
               1          2
     1  N   -0.241543   0.000000
     2  N   -0.241543  -0.000000
     3  H    0.241543  -0.000000
     4  H    0.241543   0.000000
 Sum of Mulliken charges =  -0.00000   0.00000

 Dipole moment (field-independent basis, Debye):
    X=             -0.0000    Y=             -0.0000    Z=              0.0000  Tot=              0.0000
 Quadrupole moment (field-independent basis, Debye-Ang):
   XX=            -14.0970   YY=            -11.1327   ZZ=            -14.1931
   XY=              4.9534   XZ=             -0.0000   YZ=             -0.0000

 Normal termination of Gaussian 16 at Thu May 15 15:38:55 2025.
