 Gaussian 16, Revision A.03,
 Gaussian 16:  ES64L-G16RevA.03 25-Dec-2016

 --------------------------------------------
 #p opt UM062X/6-311+G** nosymm int=superfine
 --------------------------------------------

 -------------------
 Title Card Required
 -------------------
 Symbolic Z-matrix:
 Charge =  0 Multiplicity = 1

 SCF Done:  E(UM062X) =  -75.1607561723     A.U. after   14 cycles
 SCF Done:  E(UM062X) =  -75.1900613671     A.U. after    9 cycles
 SCF Done:  E(UM062X) =  -75.2352182402     A.U. after   10 cycles
 SCF Done:  E(UM062X) =  -75.3080001560     A.U. after   11 cycles
 SCF Done:  E(UM062X) =  -75.4531156027     A.U. after   11 cycles
 SCF Done:  E(UM062X) =  -75.5126112343     A.U. after   12 cycles
 SCF Done:  E(UM062X) =  -75.5481157191     A.U. after   10 cycles
 SCF Done:  E(UM062X) =  -75.5821332773     A.U. after   10 cycles
 SCF Done:  E(UM062X) =  -75.5854481578     A.U. after    9 cycles
 SCF Done:  E(UM062X) =  -75.5854935763     A.U. after    8 cycles
 SCF Done:  E(UM062X) =  -75.5854967811     A.U. after    8 cycles
 Optimization completed.
    -- Stationary point found.

                          Input orientation:
 ---------------------------------------------------------------------
 Center     Atomic      Atomic             Coordinates (Angstroms)
 Number     Number       Type             X           Y           Z
 ---------------------------------------------------------------------
      1          6           0       -0.304921    0.000000    0.000000
      2          6           0        0.304921    0.000000    0.000000
      3          1           0       -1.178117   -0.770471   -0.000012
      4          1           0       -1.181073    0.758675   -0.000007
      5          1           0        1.178117    0.770471    0.000009
      6          1           0        1.181073   -0.758675    0.000004
 ---------------------------------------------------------------------

 Alpha  occ. eigenvalues --  -10.95478 -10.54748  -0.87120  -0.72060  -0.66068
 Alpha  occ. eigenvalues --   -0.60458  -0.44070  -0.23275
 Alpha virt. eigenvalues --    0.00395   0.02341   0.03819   0.04771   0.08107
 Alpha virt. eigenvalues --    0.09801   0.10052   0.11688   0.15737   0.18727
 Alpha virt. eigenvalues --    0.23726   0.28017   0.38261   0.42702   0.43402

  Beta  occ. eigenvalues --  -10.95478 -10.54748  -0.87120  -0.72060  -0.66068
  Beta  occ. eigenvalues --   -0.60458  -0.44070  -0.23275
  Beta virt. eigenvalues --    0.00395   0.02341   0.03819   0.04771   0.08107
  Beta virt. eigenvalues --    0.09801   0.10052   0.11688   0.15737   0.18727
  Beta virt. eigenvalues --    0.23726   0.28017   0.38261   0.42702   0.43402

 Mulliken charges and spin densities:
               1          2
     1  C   -0.253561   0.000000
     2  C   -0.253561  -0.000000
     3  H    0.124983   0.000000
     4  H    0.128579   0.000000
     5  H    0.124983  -0.000000
     6  H    0.128579  -0.000000
 Sum of Mulliken charges =  -0.00000  -0.00000

 Dipole moment (field-independent basis, Debye):
    X=             -0.0000    Y=             -0.0000    Z=             -0.0000  Tot=              0.0000
 Quadrupole moment (field-independent basis, Debye-Ang):
   XX=            -13.3385   YY=            -13.4638   ZZ=            -12.5684
   XY=             -0.0567   XZ=              0.0000   YZ=             -0.0000

 Normal termination of Gaussian 16 at Tue Nov 19 10:03:36 2024.
