 Gaussian 16, Revision A.03,
 Gaussian 16:  ES64L-G16RevA.03 25-Dec-2016

 --------------------------------------------
 #p opt UM062X/6-311+G** nosymm int=superfine
 --------------------------------------------

 -------------------
 Title Card Required
 -------------------
 Symbolic Z-matrix:
 Charge =  0 Multiplicity = 3

 SCF Done:  E(UM062X) =  -50.6404889021     A.U. after    9 cycles
 SCF Done:  E(UM062X) =  -50.6404979234     A.U. after    7 cycles
 Optimization completed.
    -- Stationary point found.

                          Input orientation:
 ---------------------------------------------------------------------
 Center     Atomic      Atomic             Coordinates (Angstroms)
 Number     Number       Type             X           Y           Z
 ---------------------------------------------------------------------
      1          5           0       -1.053410    0.000000    0.000000
      2          5           0        1.053410    0.000000    0.000000
      3          1           0       -2.229071   -0.000080   -0.000000
      4          1           0        2.229071    0.000080    0.000000
 ---------------------------------------------------------------------

 Alpha  occ. eigenvalues --   -7.13350  -7.13329  -0.58691  -0.55102  -0.40680
 Alpha  occ. eigenvalues --   -0.23651  -0.23651
 Alpha virt. eigenvalues --   -0.04062  -0.04062   0.00072   0.02494   0.03285
 Alpha virt. eigenvalues --    0.06214   0.06214   0.07396   0.07764   0.07764
 Alpha virt. eigenvalues --    0.13636   0.21967   0.25968   0.37690   0.39361

  Beta  occ. eigenvalues --   -7.13097  -7.13083  -0.54763  -0.53188  -0.38746
  Beta virt. eigenvalues --   -0.06447  -0.06447   0.00319   0.00319   0.00767
  Beta virt. eigenvalues --    0.02881   0.05300   0.05410   0.08989   0.08989
  Beta virt. eigenvalues --    0.11943   0.11943   0.13561   0.23077   0.28818

 Mulliken charges and spin densities:
               1          2
     1  B   -0.105306   1.035666
     2  B   -0.105306   1.035666
     3  H    0.105306  -0.035666
     4  H    0.105306  -0.035666
 Sum of Mulliken charges =  -0.00000   2.00000

 Dipole moment (field-independent basis, Debye):
    X=              0.0000    Y=             -0.0000    Z=             -0.0000  Tot=              0.0000
 Quadrupole moment (field-independent basis, Debye-Ang):
   XX=            -10.9844   YY=            -15.9329   ZZ=            -15.9329
   XY=              0.0002   XZ=              0.0000   YZ=              0.0000

 1\1\GINC-NODE01\FOpt\UM062X\6-311+G(d,p)\B2H2(3)\SZHAO\21-Apr-2025\0\\
 #p opt UM062X/6-311+G** nosymm int=superfine\\Title Card Required\\0,3
 \B,-1.05341047,0.,0.\B,1.05341047,0.,0.\H,-2.2290711607,-0.0000804493,
 0.\H,2.2290711607,0.0000804493,0.\\Version=ES64L-G16RevA.03\HF=-50.640
 4979\S2=2.008239\S2-1=0.\S2A=2.000022\RMSD=6.331e-09\RMSF=1.774e-05\Di
 pole=0.,0.,0.\Quadrupole=2.4527003,-1.2263502,-1.2263502,0.0001257,0.,
 0.\PG=C*V [C*(H1B1B1H1)]\\@

 Normal termination of Gaussian 16 at Mon Apr 21 17:25:32 2025.
