 Gaussian 16, Revision A.03,
 Gaussian 16:  ES64L-G16RevA.03 25-Dec-2016

 --------------------------------------------
 #p opt UM062X/6-311+G** nosymm int=superfine
 --------------------------------------------

 -------------------
 Title Card Required
 -------------------
 Symbolic Z-matrix:
 Charge =  0 Multiplicity = 1

 SCF Done:  E(UM062X) =  -81.6924166101     A.U. after   26 cycles
 SCF Done:  E(UM062X) =  -81.7071422087     A.U. after   16 cycles
 SCF Done:  E(UM062X) =  -81.7134052837     A.U. after   16 cycles
 SCF Done:  E(UM062X) =  -81.7152371586     A.U. after   16 cycles
 SCF Done:  E(UM062X) =  -81.7184609213     A.U. after   15 cycles
 SCF Done:  E(UM062X) =  -81.7201659039     A.U. after   15 cycles
 SCF Done:  E(UM062X) =  -81.7203865257     A.U. after   14 cycles
 SCF Done:  E(UM062X) =  -81.7206319172     A.U. after   14 cycles
 SCF Done:  E(UM062X) =  -81.7208284438     A.U. after   12 cycles
 SCF Done:  E(UM062X) =  -81.7209034924     A.U. after   13 cycles
 SCF Done:  E(UM062X) =  -81.7209238200     A.U. after   12 cycles
 SCF Done:  E(UM062X) =  -81.7209246906     A.U. after   10 cycles
 SCF Done:  E(UM062X) =  -81.7209247266     A.U. after   12 cycles
 Optimization completed.
    -- Stationary point found.

                          Input orientation:
 ---------------------------------------------------------------------
 Center     Atomic      Atomic             Coordinates (Angstroms)
 Number     Number       Type             X           Y           Z
 ---------------------------------------------------------------------
      1          5           0       -2.020399    0.000000    0.000000
      2          7           0        2.020399    0.000000    0.000000
      3          1           0       -2.338902   -1.127259   -0.026901
      4          1           0        1.994590    0.802311    0.638010
      5          1           0       -2.338902    1.127247   -0.027380
      6          1           0        1.994592   -0.802038    0.638354
 ---------------------------------------------------------------------

 Alpha  occ. eigenvalues --  -14.71521  -7.18647  -0.87289  -0.63435  -0.52199
 Alpha  occ. eigenvalues --   -0.47944  -0.33207  -0.22568
 Alpha virt. eigenvalues --   -0.12133  -0.09306   0.00509   0.02537   0.04154
 Alpha virt. eigenvalues --    0.04984   0.08965   0.11230   0.13537   0.17390
 Alpha virt. eigenvalues --    0.19777   0.20099   0.21754   0.26430   0.32108

  Beta  occ. eigenvalues --  -14.71521  -7.18647  -0.87289  -0.63435  -0.52199
  Beta  occ. eigenvalues --   -0.47944  -0.33207  -0.22568
  Beta virt. eigenvalues --   -0.12133  -0.09306   0.00509   0.02537   0.04154
  Beta virt. eigenvalues --    0.04984   0.08965   0.11230   0.13537   0.17390
  Beta virt. eigenvalues --    0.19777   0.20099   0.21754   0.26430   0.32108

 Mulliken charges and spin densities:
               1          2
     1  B    0.138948  -0.000000
     2  N   -0.682613   0.000000
     3  H    0.071402  -0.000000
     4  H    0.200431   0.000000
     5  H    0.071402  -0.000000
     6  H    0.200431   0.000000
 Sum of Mulliken charges =  -0.00000  -0.00000

 Dipole moment (field-independent basis, Debye):
    X=             -5.8390    Y=              0.0004    Z=              1.8933  Tot=              6.1383
 Quadrupole moment (field-independent basis, Debye-Ang):
   XX=            -13.8315   YY=            -13.4662   ZZ=            -14.6369
   XY=              0.0009   XZ=              4.0435   YZ=             -0.0003

 Normal termination of Gaussian 16 at Mon Apr 21 17:53:13 2025.
