 Gaussian 16, Revision A.03,
 Gaussian 16:  ES64L-G16RevA.03 25-Dec-2016

 --------------------------------------------
 #p opt UM062X/6-311+G** nosymm int=superfine
 --------------------------------------------

 -------------------
 Title Card Required
 -------------------
 Symbolic Z-matrix:
 Charge =  0 Multiplicity = 1

 SCF Done:  E(UM062X) =  -684.951437164     A.U. after   11 cycles
 SCF Done:  E(UM062X) =  -684.952974385     A.U. after   11 cycles
 SCF Done:  E(UM062X) =  -684.954076721     A.U. after   11 cycles
 SCF Done:  E(UM062X) =  -684.954260362     A.U. after   10 cycles
 SCF Done:  E(UM062X) =  -684.954312344     A.U. after   10 cycles
 SCF Done:  E(UM062X) =  -684.954339072     A.U. after   10 cycles
 SCF Done:  E(UM062X) =  -684.954364951     A.U. after   10 cycles
 SCF Done:  E(UM062X) =  -684.954393355     A.U. after   13 cycles
 SCF Done:  E(UM062X) =  -684.954415605     A.U. after   10 cycles
 SCF Done:  E(UM062X) =  -684.954465259     A.U. after   12 cycles
 SCF Done:  E(UM062X) =  -684.954511747     A.U. after   13 cycles
 SCF Done:  E(UM062X) =  -684.954550481     A.U. after   10 cycles
 SCF Done:  E(UM062X) =  -684.954560327     A.U. after   13 cycles
 SCF Done:  E(UM062X) =  -684.954562452     A.U. after   10 cycles
 SCF Done:  E(UM062X) =  -684.954563094     A.U. after    9 cycles
 SCF Done:  E(UM062X) =  -684.954563228     A.U. after   10 cycles
 SCF Done:  E(UM062X) =  -684.954563281     A.U. after    8 cycles
 Optimization completed.
    -- Stationary point found.

                          Input orientation:
 ---------------------------------------------------------------------
 Center     Atomic      Atomic             Coordinates (Angstroms)
 Number     Number       Type             X           Y           Z
 ---------------------------------------------------------------------
      1         15           0       -1.842217    0.000000    0.000000
      2         15           0        1.842217    0.000000    0.000000
      3          1           0        1.780074   -0.958376    1.044132
      4          1           0       -1.781071    1.036998    0.966205
      5          1           0        1.782671   -1.009030   -0.995539
      6          1           0       -1.778567    0.928070   -1.071123
 ---------------------------------------------------------------------

 Alpha  occ. eigenvalues --  -78.04970 -78.04970  -6.87321  -6.87320  -4.98874
 Alpha  occ. eigenvalues --   -4.98873  -4.98752  -4.98751  -4.98567  -4.98567
 Alpha  occ. eigenvalues --   -0.71354  -0.70396  -0.45104  -0.44642  -0.36265
 Alpha  occ. eigenvalues --   -0.35841  -0.26397
 Alpha virt. eigenvalues --   -0.12599   0.01656   0.02941   0.03263   0.04092
 Alpha virt. eigenvalues --    0.04800   0.05773   0.06083   0.06133   0.06523
 Alpha virt. eigenvalues --    0.08308   0.15361   0.18666   0.28185   0.28565

  Beta  occ. eigenvalues --  -78.04970 -78.04970  -6.87321  -6.87320  -4.98874
  Beta  occ. eigenvalues --   -4.98873  -4.98752  -4.98751  -4.98567  -4.98567
  Beta  occ. eigenvalues --   -0.71354  -0.70396  -0.45104  -0.44642  -0.36265
  Beta  occ. eigenvalues --   -0.35841  -0.26397
  Beta virt. eigenvalues --   -0.12599   0.01656   0.02941   0.03263   0.04092
  Beta virt. eigenvalues --    0.04800   0.05773   0.06083   0.06133   0.06523
  Beta virt. eigenvalues --    0.08308   0.15361   0.18666   0.28185   0.28565

 Mulliken charges and spin densities:
               1          2
     1  P   -0.024497  -0.000001
     2  P   -0.024731   0.000001
     3  H    0.012448  -0.000000
     4  H    0.012412   0.000000
     5  H    0.012155  -0.000000
     6  H    0.012213   0.000000
 Sum of Mulliken charges =   0.00000   0.00000

 Dipole moment (field-independent basis, Debye):
    X=              0.0004    Y=             -0.0005    Z=             -0.0244  Tot=              0.0244
 Quadrupole moment (field-independent basis, Debye-Ang):
   XX=            -28.8429   YY=            -31.2185   ZZ=            -28.4727
   XY=             -3.9579   XZ=              0.1509   YZ=              0.1068

 Normal termination of Gaussian 16 at Mon Apr 21 20:48:30 2025.
