 Gaussian 16, Revision A.03,
 Gaussian 16:  ES64L-G16RevA.03 25-Dec-2016

 --------------------------------------------
 #p opt UM062X/6-311+G** nosymm int=superfine
 --------------------------------------------

 -------------------
 Title Card Required
 -------------------
 Symbolic Z-matrix:
 Charge =  0 Multiplicity = 3

 SCF Done:  E(UM062X) =  -50.5173649383     A.U. after   13 cycles
 SCF Done:  E(UM062X) =  -50.5184084920     A.U. after    9 cycles
 SCF Done:  E(UM062X) =  -50.5184173329     A.U. after    9 cycles
 Optimization completed.
    -- Stationary point found.

                          Input orientation:
 ---------------------------------------------------------------------
 Center     Atomic      Atomic             Coordinates (Angstroms)
 Number     Number       Type             X           Y           Z
 ---------------------------------------------------------------------
      1          5           0       -1.453410    0.000000    0.000000
      2          5           0        1.453410    0.000000    0.000000
      3          1           0       -2.661214   -0.000082   -0.000002
      4          1           0        2.661213    0.000082    0.000001
 ---------------------------------------------------------------------

 Alpha  occ. eigenvalues --   -7.13500  -7.13498  -0.56590  -0.55775  -0.36145
 Alpha  occ. eigenvalues --   -0.25627  -0.19218
 Alpha virt. eigenvalues --   -0.07512  -0.06929  -0.03936   0.02635   0.02706
 Alpha virt. eigenvalues --    0.05999   0.07185   0.07210   0.08100   0.08152
 Alpha virt. eigenvalues --    0.12241   0.19664   0.23218   0.36617   0.39223

  Beta  occ. eigenvalues --   -7.12553  -7.12551  -0.53067  -0.52597  -0.27800
  Beta virt. eigenvalues --   -0.05251  -0.05056  -0.04545  -0.01605  -0.01228
  Beta virt. eigenvalues --    0.01604   0.02821   0.06790   0.06934   0.07489
  Beta virt. eigenvalues --    0.08764   0.09998   0.10151   0.21061   0.24477

 Mulliken charges and spin densities:
               1          2
     1  B   -0.065207   0.910470
     2  B   -0.065207   0.910470
     3  H    0.065207   0.089530
     4  H    0.065207   0.089530
 Sum of Mulliken charges =  -0.00000   2.00000

 Dipole moment (field-independent basis, Debye):
    X=             -0.0000    Y=              0.0000    Z=             -0.0000  Tot=              0.0000
 Quadrupole moment (field-independent basis, Debye-Ang):
   XX=            -11.0055   YY=            -13.4220   ZZ=            -17.4689
   XY=              0.0001   XZ=              0.0000   YZ=              0.0591

 1\1\GINC-NODE01\FOpt\UM062X\6-311+G(d,p)\B2H2(3)\SZHAO\21-Apr-2025\0\\
 #p opt UM062X/6-311+G** nosymm int=superfine\\Title Card Required\\0,3
 \B,-1.45341047,0.,0.\B,1.45341047,0.,0.\H,-2.661213532,-0.0000823313,-
 0.0000017241\H,2.6612134488,0.0000823354,0.0000006804\\Version=ES64L-G
 16RevA.03\HF=-50.5184173\S2=2.010079\S2-1=0.\S2A=2.00001\RMSD=6.123e-0
 9\RMSF=1.625e-06\Dipole=-0.0000002,0.,-0.0000004\Quadrupole=2.200652,0
 .4040417,-2.6046938,0.0000936,0.0000014,0.0439608\PG=C*V [C*(H1B1B1H1)
 ]\\@

 Normal termination of Gaussian 16 at Mon Apr 21 17:26:21 2025.
