 Gaussian 16, Revision A.03,
 Gaussian 16:  ES64L-G16RevA.03 25-Dec-2016

 ---------------------------------------
 #p UM062X/6-311+G** force int=superfine
 ---------------------------------------

 -------------------
 Title Card Required
 -------------------
 Symbolic Z-matrix:
 Charge =  1 Multiplicity = 2

                         Standard orientation:
 ---------------------------------------------------------------------
 Center     Atomic      Atomic             Coordinates (Angstroms)
 Number     Number       Type             X           Y           Z
 ---------------------------------------------------------------------
      1          6           0        1.091890   -0.615070    1.080877
      2          6           0       -1.091886    0.615078   -1.080872
      3          1           0       -0.319761    0.802945   -1.818403
      4          1           0        1.387392   -1.402356    0.396564
      5          1           0       -1.388101    1.402512   -0.397040
      6          1           0       -1.649789   -0.314124   -1.108256
      7          1           0        0.319816   -0.802768    1.818505
      8          1           0        1.650416    0.313746    1.108599
 ---------------------------------------------------------------------

 SCF Done:  E(UM062X) =  -79.3309293842     A.U. after   10 cycles

 The electronic state is 2-A.
 Alpha  occ. eigenvalues --  -10.84658 -10.84656  -1.03374  -1.02422  -0.74200
 Alpha  occ. eigenvalues --   -0.74199  -0.73773  -0.73773  -0.50872
 Alpha virt. eigenvalues --   -0.36376  -0.13607  -0.10206  -0.10086  -0.10086
 Alpha virt. eigenvalues --   -0.06245  -0.06245  -0.04872  -0.03270  -0.01462
 Alpha virt. eigenvalues --   -0.01460   0.01275   0.01278   0.04257   0.07880

  Beta  occ. eigenvalues --  -10.84455 -10.84455  -1.00617  -0.99983  -0.73686
  Beta  occ. eigenvalues --   -0.73686  -0.73261  -0.73260
  Beta virt. eigenvalues --   -0.32645  -0.26106  -0.15527  -0.11141  -0.11140
  Beta virt. eigenvalues --   -0.10067  -0.06360  -0.06359  -0.05189  -0.02365
  Beta virt. eigenvalues --   -0.01798  -0.01795   0.01570   0.01573   0.05018

 Mulliken charges and spin densities:
               1          2
     1  C   -0.268215   0.563328
     2  C   -0.268216   0.563332
     3  H    0.256091  -0.021111
     4  H    0.256052  -0.021107
     5  H    0.256078  -0.021106
     6  H    0.256045  -0.021114
     7  H    0.256093  -0.021111
     8  H    0.256071  -0.021112
 Sum of Mulliken charges =   1.00000   1.00000

 Dipole moment (field-independent basis, Debye):
    X=             -0.0000    Y=             -0.0001    Z=             -0.0000  Tot=              0.0001
 Quadrupole moment (field-independent basis, Debye-Ang):
   XX=             -5.3487   YY=             -9.2501   ZZ=             -5.4600
   XY=             -3.2207   XZ=              5.6601   YZ=             -3.1891

 Normal termination of Gaussian 16 at Wed Nov 13 13:03:00 2024.
