 Gaussian 16, Revision A.03,
 Gaussian 16:  ES64L-G16RevA.03 25-Dec-2016

 --------------------------------------------
 #p opt UM062X/6-311+G** nosymm int=superfine
 --------------------------------------------

 -------------------
 Title Card Required
 -------------------
 Symbolic Z-matrix:
 Charge =  0 Multiplicity = 1

 SCF Done:  E(UM062X) =  -77.0791661000     A.U. after    9 cycles
 SCF Done:  E(UM062X) =  -77.1214020973     A.U. after    9 cycles
 SCF Done:  E(UM062X) =  -77.1643986646     A.U. after   10 cycles
 SCF Done:  E(UM062X) =  -77.1647299121     A.U. after    8 cycles
 Optimization completed.
    -- Stationary point found.

                          Input orientation:
 ---------------------------------------------------------------------
 Center     Atomic      Atomic             Coordinates (Angstroms)
 Number     Number       Type             X           Y           Z
 ---------------------------------------------------------------------
      1          6           0       -0.784055    0.000000    0.000000
      2          6           0        0.784055    0.000000    0.000000
      3          1           0       -1.857323    0.000000   -0.000000
      4          1           0        1.857333    0.000001   -0.000001
 ---------------------------------------------------------------------

 Alpha  occ. eigenvalues --  -10.63791 -10.63748  -0.78998  -0.68695  -0.54490
 Alpha  occ. eigenvalues --   -0.31265  -0.31265
 Alpha virt. eigenvalues --   -0.02385  -0.02385   0.01394   0.02362   0.08254
 Alpha virt. eigenvalues --    0.08254   0.08872   0.09438   0.11468   0.11468
 Alpha virt. eigenvalues --    0.17949   0.23037   0.29917   0.46388   0.58737

  Beta  occ. eigenvalues --  -10.63791 -10.63748  -0.78998  -0.68695  -0.54490
  Beta  occ. eigenvalues --   -0.31265  -0.31265
  Beta virt. eigenvalues --   -0.02385  -0.02385   0.01394   0.02362   0.08254
  Beta virt. eigenvalues --    0.08254   0.08872   0.09438   0.11468   0.11468
  Beta virt. eigenvalues --    0.17949   0.23037   0.29917   0.46388   0.58737

 Mulliken charges and spin densities:
               1          2
     1  C   -0.232728   0.000000
     2  C   -0.232727  -0.000000
     3  H    0.232726  -0.000000
     4  H    0.232729   0.000000
 Sum of Mulliken charges =  -0.00000  -0.00000

 Dipole moment (field-independent basis, Debye):
    X=              0.0000    Y=              0.0000    Z=             -0.0000  Tot=              0.0000
 Quadrupole moment (field-independent basis, Debye-Ang):
   XX=             -5.4960   YY=            -15.3550   ZZ=            -15.3550
   XY=              0.0000   XZ=             -0.0000   YZ=             -0.0000

 Normal termination of Gaussian 16 at Tue Dec  3 20:10:56 2024.
