 Gaussian 16, Revision A.03,
 Gaussian 16:  ES64L-G16RevA.03 25-Dec-2016

 ---------------------------------------------------
 #p UM062X/6-311+G** force int=superfine pop=saveNBO
 ---------------------------------------------------

 -------------------
 Title Card Required
 -------------------
 Symbolic Z-matrix:
 Charge =  0 Multiplicity = 1

                         Standard orientation:
 ---------------------------------------------------------------------
 Center     Atomic      Atomic             Coordinates (Angstroms)
 Number     Number       Type             X           Y           Z
 ---------------------------------------------------------------------
      1          8           0        0.000000    0.000000   -2.660091
      2         16           0        0.000000    0.000000    1.330045
 ---------------------------------------------------------------------

 SCF Done:  E(UM062X) =  -473.004229435     A.U. after   18 cycles

 Unable to determine electronic state:  partially filled degenerate orbitals.
 Alpha  occ. eigenvalues --  -89.97114 -19.76783  -8.33164  -6.25961  -6.24371
 Alpha  occ. eigenvalues --   -6.24349  -1.06504  -0.77197  -0.45392  -0.45377
 Alpha  occ. eigenvalues --   -0.34446  -0.34356
 Alpha virt. eigenvalues --   -0.19574  -0.19448   0.03592   0.04778   0.05674
 Alpha virt. eigenvalues --    0.05731   0.14676   0.17869   0.18050   0.22183
 Alpha virt. eigenvalues --    0.33708   0.34914   0.35747   0.58858   0.77425

  Beta  occ. eigenvalues --  -89.97114 -19.76783  -8.33164  -6.25961  -6.24371
  Beta  occ. eigenvalues --   -6.24349  -1.06504  -0.77197  -0.45392  -0.45377
  Beta  occ. eigenvalues --   -0.34446  -0.34356
  Beta virt. eigenvalues --   -0.19574  -0.19448   0.03592   0.04778   0.05674
  Beta virt. eigenvalues --    0.05731   0.14676   0.17869   0.18050   0.22183
  Beta virt. eigenvalues --    0.33708   0.34914   0.35747   0.58858   0.77425

 Mulliken charges and spin densities:
               1          2
     1  O   -0.012415  -0.000000
     2  S    0.012415  -0.000000
 Sum of Mulliken charges =  -0.00000  -0.00000

 Dipole moment (field-independent basis, Debye):
    X=              0.0000    Y=              0.0000    Z=              0.3335  Tot=              0.3335
 Quadrupole moment (field-independent basis, Debye-Ang):
   XX=            -15.6828   YY=            -21.1381   ZZ=            -19.1072
   XY=              0.0000   XZ=              0.0000   YZ=              0.0000

 Summary of Natural Population Analysis:

                                       Natural Population
                Natural  -----------------------------------------------
    Atom  No    Charge         Core      Valence    Rydberg      Total
 -----------------------------------------------------------------------
      O    1   -0.00718      1.00000     3.00705    0.00012     4.00718
      S    2    0.00718      4.99999     2.99239    0.00044     7.99282
 =======================================================================
   * Total *   -0.00000      5.99999     5.99944    0.00057    12.00000

 Normal termination of Gaussian 16 at Mon Apr 21 20:01:24 2025.
