 Gaussian 16, Revision A.03,
 Gaussian 16:  ES64L-G16RevA.03 25-Dec-2016

 --------------------------------------------
 #p opt UM062X/6-311+G** nosymm int=superfine
 --------------------------------------------

 -------------------
 Title Card Required
 -------------------
 Symbolic Z-matrix:
 Charge =  0 Multiplicity = 1

 SCF Done:  E(UM062X) =  -80.4092466778     A.U. after   16 cycles
 SCF Done:  E(UM062X) =  -80.4125545981     A.U. after    9 cycles
 SCF Done:  E(UM062X) =  -80.4126013410     A.U. after    9 cycles
 Optimization completed.
    -- Stationary point found.

                          Input orientation:
 ---------------------------------------------------------------------
 Center     Atomic      Atomic             Coordinates (Angstroms)
 Number     Number       Type             X           Y           Z
 ---------------------------------------------------------------------
      1          5           0       -2.042066    0.000000    0.000000
      2          7           0        2.042066    0.000000    0.000000
      3          1           0       -3.274674   -0.000627   -0.000000
      4          1           0        3.081132    0.000415    0.000000
 ---------------------------------------------------------------------

 Alpha  occ. eigenvalues --  -14.82647  -7.12098  -0.89126  -0.54306  -0.45651
 Alpha  occ. eigenvalues --   -0.33302  -0.27316
 Alpha virt. eigenvalues --   -0.12164  -0.04021  -0.03982   0.02584   0.04071
 Alpha virt. eigenvalues --    0.06635   0.06729   0.09532   0.13749   0.14772
 Alpha virt. eigenvalues --    0.16658   0.19224   0.25001   0.38397   0.42480

  Beta  occ. eigenvalues --  -14.82647  -7.12098  -0.89126  -0.54306  -0.45651
  Beta  occ. eigenvalues --   -0.33302  -0.27316
  Beta virt. eigenvalues --   -0.12164  -0.04021  -0.03982   0.02584   0.04071
  Beta virt. eigenvalues --    0.06635   0.06729   0.09532   0.13749   0.14772
  Beta virt. eigenvalues --    0.16658   0.19224   0.25001   0.38397   0.42480

 Mulliken charges and spin densities:
               1          2
     1  B   -0.006237   0.000000
     2  N   -0.195084  -0.000000
     3  H   -0.009552  -0.000000
     4  H    0.210874   0.000000
 Sum of Mulliken charges =  -0.00000  -0.00000

 Dipole moment (field-independent basis, Debye):
    X=              0.1935    Y=             -0.0002    Z=             -0.0000  Tot=              0.1935
 Quadrupole moment (field-independent basis, Debye-Ang):
   XX=             -2.6864   YY=            -11.8506   ZZ=            -15.1275
   XY=              0.0014   XZ=             -0.0000   YZ=              0.0000

 Normal termination of Gaussian 16 at Mon Apr 21 18:08:44 2025.
