 Gaussian 16, Revision A.03,
 Gaussian 16:  ES64L-G16RevA.03 25-Dec-2016

 ---------------------------------------
 #p UM062X/6-311+G** force int=superfine
 ---------------------------------------

 -------------------
 Title Card Required
 -------------------
 Symbolic Z-matrix:
 Charge =  1 Multiplicity = 2

                         Standard orientation:
 ---------------------------------------------------------------------
 Center     Atomic      Atomic             Coordinates (Angstroms)
 Number     Number       Type             X           Y           Z
 ---------------------------------------------------------------------
      1          6           0        0.200925    0.540287   -1.642315
      2          6           0       -0.200931   -0.540281    1.642316
      3          1           0       -1.022296   -1.191728    1.366658
      4          1           0        0.403092   -0.467441   -1.986732
      5          1           0       -0.402965    0.467197    1.987541
      6          1           0        0.809998   -0.930075    1.675391
      7          1           0        1.022168    1.191893   -1.366667
      8          1           0       -0.809964    0.930116   -1.676199
 ---------------------------------------------------------------------

 SCF Done:  E(UM062X) =  -79.3266435247     A.U. after   10 cycles

 The electronic state is 2-A.
 Alpha  occ. eigenvalues --  -10.84378 -10.84376  -1.02992  -1.02280  -0.73901
 Alpha  occ. eigenvalues --   -0.73900  -0.73599  -0.73598  -0.49861
 Alpha virt. eigenvalues --   -0.36838  -0.13341  -0.10216  -0.09928  -0.09927
 Alpha virt. eigenvalues --   -0.06245  -0.06245  -0.04641  -0.03225  -0.01048
 Alpha virt. eigenvalues --   -0.01046   0.01272   0.01273   0.03751   0.08078

  Beta  occ. eigenvalues --  -10.84171 -10.84171  -1.00288  -0.99815  -0.73394
  Beta  occ. eigenvalues --   -0.73394  -0.73079  -0.73079
  Beta virt. eigenvalues --   -0.32722  -0.26346  -0.15708  -0.11131  -0.11131
  Beta virt. eigenvalues --   -0.10126  -0.06316  -0.06316  -0.05039  -0.02303
  Beta virt. eigenvalues --   -0.01398  -0.01395   0.01558   0.01559   0.04132

 Mulliken charges and spin densities:
               1          2
     1  C   -0.264407   0.560874
     2  C   -0.264406   0.560875
     3  H    0.254819  -0.020293
     4  H    0.254781  -0.020293
     5  H    0.254804  -0.020292
     6  H    0.254783  -0.020290
     7  H    0.254820  -0.020292
     8  H    0.254805  -0.020289
 Sum of Mulliken charges =   1.00000   1.00000

 Dipole moment (field-independent basis, Debye):
    X=              0.0000    Y=             -0.0001    Z=             -0.0000  Tot=              0.0001
 Quadrupole moment (field-independent basis, Debye-Ang):
   XX=            -10.8891   YY=             -9.6829   ZZ=              1.8455
   XY=              0.5210   XZ=             -1.5830   YZ=             -4.2543

 Normal termination of Gaussian 16 at Wed Nov 13 13:03:57 2024.
