 Gaussian 16, Revision A.03,
 Gaussian 16:  ES64L-G16RevA.03 25-Dec-2016

 --------------------------------------------
 #p opt UM062X/6-311+G** nosymm int=superfine
 --------------------------------------------

 -------------------
 Title Card Required
 -------------------
 Symbolic Z-matrix:
 Charge =  1 Multiplicity = 2

 SCF Done:  E(UM062X) =  -77.9507903502     A.U. after    9 cycles
 SCF Done:  E(UM062X) =  -77.9928620568     A.U. after    9 cycles
 SCF Done:  E(UM062X) =  -78.0331079336     A.U. after   11 cycles
 SCF Done:  E(UM062X) =  -78.0421011516     A.U. after    9 cycles
 SCF Done:  E(UM062X) =  -78.0429762249     A.U. after    9 cycles
 SCF Done:  E(UM062X) =  -78.0429890689     A.U. after    8 cycles
 Optimization completed.
    -- Stationary point found.

                          Input orientation:
 ---------------------------------------------------------------------
 Center     Atomic      Atomic             Coordinates (Angstroms)
 Number     Number       Type             X           Y           Z
 ---------------------------------------------------------------------
      1          6           0       -1.053269    0.000000    0.000000
      2          6           0        1.053269    0.000000    0.000000
      3          1           0       -1.504684   -0.986781    0.000000
      4          1           0       -1.504639    0.986837    0.000000
      5          1           0        1.504684    0.986781    0.000000
      6          1           0        1.504639   -0.986837    0.000000
 ---------------------------------------------------------------------

 Alpha  occ. eigenvalues --  -10.92294 -10.92281  -1.06111  -1.00238  -0.80507
 Alpha  occ. eigenvalues --   -0.77748  -0.65930  -0.55583
 Alpha virt. eigenvalues --   -0.36948  -0.26047  -0.14046  -0.10984  -0.10223
 Alpha virt. eigenvalues --   -0.08298  -0.07499  -0.07124  -0.04755  -0.04044
 Alpha virt. eigenvalues --   -0.03002  -0.00313   0.02030   0.09305   0.17921

  Beta  occ. eigenvalues --  -10.92056 -10.92048  -1.03082  -0.97980  -0.80000
  Beta  occ. eigenvalues --   -0.77392  -0.64330
  Beta virt. eigenvalues --   -0.34973  -0.28090  -0.23726  -0.15323  -0.11292
  Beta virt. eigenvalues --   -0.10318  -0.07711  -0.07484  -0.07385  -0.04136
  Beta virt. eigenvalues --   -0.03874  -0.02515   0.00244   0.01174   0.10086

 Mulliken charges and spin densities:
               1          2
     1  C   -0.067810   0.541446
     2  C   -0.067810   0.541446
     3  H    0.283904  -0.020722
     4  H    0.283906  -0.020723
     5  H    0.283904  -0.020722
     6  H    0.283906  -0.020723
 Sum of Mulliken charges =   1.00000   1.00000

 Dipole moment (field-independent basis, Debye):
    X=             -0.0000    Y=             -0.0000    Z=              0.0000  Tot=              0.0000
 Quadrupole moment (field-independent basis, Debye-Ang):
   XX=             -1.4818   YY=             -8.0941   ZZ=            -12.5912
   XY=             -0.0000   XZ=              0.0000   YZ=              0.0000

 Normal termination of Gaussian 16 at Tue Nov 19 11:25:09 2024.
