 Gaussian 16, Revision A.03,
 Gaussian 16:  ES64L-G16RevA.03 25-Dec-2016

 --------------------------------------------
 #p opt UM062X/6-311+G** nosymm int=superfine
 --------------------------------------------

 -------------------
 Title Card Required
 -------------------
 Symbolic Z-matrix:
 Charge =  0 Multiplicity = 1

 SCF Done:  E(UM062X) =  -75.6253251809     A.U. after   13 cycles
 SCF Done:  E(UM062X) =  -75.6522620199     A.U. after    9 cycles
 SCF Done:  E(UM062X) =  -75.6923413971     A.U. after   10 cycles
 SCF Done:  E(UM062X) =  -75.7568109825     A.U. after   11 cycles
 SCF Done:  E(UM062X) =  -75.8840136295     A.U. after   10 cycles
 SCF Done:  E(UM062X) =  -75.9924259215     A.U. after   11 cycles
 SCF Done:  E(UM062X) =  -75.9945640673     A.U. after    8 cycles
 SCF Done:  E(UM062X) =  -76.0102703853     A.U. after    9 cycles
 SCF Done:  E(UM062X) =  -76.0159684069     A.U. after    9 cycles
 SCF Done:  E(UM062X) =  -76.0167561415     A.U. after    9 cycles
 SCF Done:  E(UM062X) =  -76.0167583235     A.U. after    8 cycles
 Optimization completed.
    -- Stationary point found.

                          Input orientation:
 ---------------------------------------------------------------------
 Center     Atomic      Atomic             Coordinates (Angstroms)
 Number     Number       Type             X           Y           Z
 ---------------------------------------------------------------------
      1          6           0       -0.319132    0.000000   -0.000000
      2          6           0        0.319132   -0.000000    0.000000
      3          1           0       -1.151918   -0.788786   -0.000002
      4          1           0       -1.153799    0.782267   -0.000001
      5          1           0        1.151918    0.788786    0.000001
      6          1           0        1.153799   -0.782267    0.000001
 ---------------------------------------------------------------------

 Alpha  occ. eigenvalues --  -10.83189 -10.51314  -0.87897  -0.69682  -0.62364
 Alpha  occ. eigenvalues --   -0.60181  -0.46807  -0.24374
 Alpha virt. eigenvalues --    0.01214   0.02478   0.03946   0.05025   0.08161
 Alpha virt. eigenvalues --    0.09800   0.09859   0.12396   0.15783   0.18796
 Alpha virt. eigenvalues --    0.24437   0.27768   0.38015   0.42136   0.44490

  Beta  occ. eigenvalues --  -10.83189 -10.51314  -0.87897  -0.69682  -0.62364
  Beta  occ. eigenvalues --   -0.60181  -0.46807  -0.24374
  Beta virt. eigenvalues --    0.01214   0.02478   0.03946   0.05025   0.08161
  Beta virt. eigenvalues --    0.09800   0.09859   0.12396   0.15783   0.18796
  Beta virt. eigenvalues --    0.24437   0.27768   0.38015   0.42136   0.44490

 Mulliken charges and spin densities:
               1          2
     1  C   -0.250992  -0.000000
     2  C   -0.250992   0.000000
     3  H    0.124600   0.000000
     4  H    0.126392   0.000000
     5  H    0.124600   0.000000
     6  H    0.126392   0.000000
 Sum of Mulliken charges =  -0.00000   0.00000

 Dipole moment (field-independent basis, Debye):
    X=              0.0000    Y=              0.0000    Z=             -0.0000  Tot=              0.0000
 Quadrupole moment (field-independent basis, Debye-Ang):
   XX=            -13.0737   YY=            -13.1553   ZZ=            -12.6295
   XY=             -0.0277   XZ=              0.0000   YZ=             -0.0000

 Normal termination of Gaussian 16 at Tue Nov 19 10:06:39 2024.
