 Gaussian 16, Revision A.03,
 Gaussian 16:  ES64L-G16RevA.03 25-Dec-2016

 --------------------------------------------
 #p opt UM062X/6-311+G** nosymm int=superfine
 --------------------------------------------

 -------------------
 Title Card Required
 -------------------
 Symbolic Z-matrix:
 Charge = -1 Multiplicity = 2

 SCF Done:  E(UM062X) =  -53.1916710996     A.U. after   12 cycles
 SCF Done:  E(UM062X) =  -53.1969917271     A.U. after   11 cycles
 SCF Done:  E(UM062X) =  -53.1982034190     A.U. after   10 cycles
 SCF Done:  E(UM062X) =  -53.1982135467     A.U. after    9 cycles
 Optimization completed.
    -- Stationary point found.

                          Input orientation:
 ---------------------------------------------------------------------
 Center     Atomic      Atomic             Coordinates (Angstroms)
 Number     Number       Type             X           Y           Z
 ---------------------------------------------------------------------
      1          5           0       -2.515672    0.000000    0.000000
      2          5           0        2.515672    0.000000    0.000000
      3          1           0        2.559344   -1.196992   -0.000016
      4          1           0       -2.559250   -0.598492    1.036637
      5          1           0        2.559421    0.598509   -1.036620
      6          1           0        2.559176    0.598478    1.036648
      7          1           0       -2.559353    1.196992   -0.000001
      8          1           0       -2.559339   -0.598496   -1.036631
 ---------------------------------------------------------------------

 Alpha  occ. eigenvalues --   -6.85748  -6.85747  -0.40967  -0.40790  -0.22880
 Alpha  occ. eigenvalues --   -0.22880  -0.22821  -0.22821   0.01567
 Alpha virt. eigenvalues --    0.09218   0.16128   0.17296   0.17296   0.17882
 Alpha virt. eigenvalues --    0.17882   0.17905   0.23739   0.23747   0.32567
 Alpha virt. eigenvalues --    0.32567   0.33053   0.33053   0.33519   0.38255

  Beta  occ. eigenvalues --   -6.85711  -6.85710  -0.39345  -0.39228  -0.22738
  Beta  occ. eigenvalues --   -0.22738  -0.22662  -0.22661
  Beta virt. eigenvalues --    0.03377   0.12463   0.12696   0.13792   0.13793
  Beta virt. eigenvalues --    0.17233   0.17233   0.18691   0.22697   0.24449
  Beta virt. eigenvalues --    0.31050   0.31591   0.31591   0.32067   0.32068

 Mulliken charges and spin densities:
               1          2
     1  B   -0.366922   0.544752
     2  B   -0.366922   0.544752
     3  H   -0.044382  -0.014941
     4  H   -0.044346  -0.014904
     5  H   -0.044353  -0.014906
     6  H   -0.044344  -0.014904
     7  H   -0.044382  -0.014942
     8  H   -0.044350  -0.014906
 Sum of Mulliken charges =  -1.00000   1.00000

 Dipole moment (field-independent basis, Debye):
    X=              0.0000    Y=             -0.0000    Z=              0.0001  Tot=              0.0001
 Quadrupole moment (field-independent basis, Debye-Ang):
   XX=            -53.8085   YY=            -24.4106   ZZ=            -24.4104
   XY=              0.0001   XZ=              0.0000   YZ=              0.0000

 Normal termination of Gaussian 16 at Mon Apr 21 16:58:05 2025.
