 Gaussian 16, Revision A.03,
 Gaussian 16:  ES64L-G16RevA.03 25-Dec-2016

 --------------------------------------------
 #p opt UM062X/6-311+G** nosymm int=superfine
 --------------------------------------------

 -------------------
 Title Card Required
 -------------------
 Symbolic Z-matrix:
 Charge =  0 Multiplicity = 1

 SCF Done:  E(UM062X) =  -579.995803650     A.U. after    8 cycles

 Alpha  occ. eigenvalues --  -67.01739 -67.01738  -5.56844  -5.56793  -3.87988
 Alpha  occ. eigenvalues --   -3.87953  -3.87953  -3.87920  -3.87920  -3.87712
 Alpha  occ. eigenvalues --   -0.62769  -0.54698  -0.43856  -0.25584  -0.25584
 Alpha virt. eigenvalues --   -0.04899  -0.03446  -0.03446   0.01567   0.02501
 Alpha virt. eigenvalues --    0.03936   0.04858   0.04858   0.07380   0.07380
 Alpha virt. eigenvalues --    0.12137   0.16110   0.23466   0.28192   0.28974

  Beta  occ. eigenvalues --  -67.01739 -67.01738  -5.56844  -5.56793  -3.87988
  Beta  occ. eigenvalues --   -3.87953  -3.87953  -3.87920  -3.87920  -3.87712
  Beta  occ. eigenvalues --   -0.62769  -0.54698  -0.43856  -0.25584  -0.25584
  Beta virt. eigenvalues --   -0.04899  -0.03446  -0.03446   0.01567   0.02501
  Beta virt. eigenvalues --    0.03936   0.04858   0.04858   0.07380   0.07380
  Beta virt. eigenvalues --    0.12137   0.16110   0.23466   0.28192   0.28974

 Mulliken charges and spin densities:
               1          2
     1  Si  -0.019130   0.000000
     2  Si  -0.019130   0.000000
     3  H    0.019130  -0.000000
     4  H    0.019130  -0.000000
 Sum of Mulliken charges =  -0.00000   0.00000

 Dipole moment (field-independent basis, Debye):
    X=             -0.0000    Y=              0.0000    Z=              0.0000  Tot=              0.0000
 Quadrupole moment (field-independent basis, Debye-Ang):
   XX=            -20.3928   YY=            -30.5367   ZZ=            -30.5367
   XY=              0.0001   XZ=              0.0000   YZ=              0.0000

 Optimization completed.
    -- Stationary point found.

                          Input orientation:
 ---------------------------------------------------------------------
 Center     Atomic      Atomic             Coordinates (Angstroms)
 Number     Number       Type             X           Y           Z
 ---------------------------------------------------------------------
      1         14           0       -1.003705    0.000000    0.000000
      2         14           0        1.003705    0.000000    0.000000
      3          1           0       -2.462080   -0.000027    0.000000
      4          1           0        2.462080    0.000038    0.000000
 ---------------------------------------------------------------------

 Normal termination of Gaussian 16 at Mon Apr 21 21:22:23 2025.
