 Gaussian 16, Revision A.03,
 Gaussian 16:  ES64L-G16RevA.03 25-Dec-2016

 --------------------------------------------
 #p opt UM062X/6-311+G** nosymm int=superfine
 --------------------------------------------

 -------------------
 Title Card Required
 -------------------
 Symbolic Z-matrix:
 Charge =  1 Multiplicity = 1

 SCF Done:  E(UM062X) =  -290.902335929     A.U. after    8 cycles
 SCF Done:  E(UM062X) =  -290.906140247     A.U. after    8 cycles
 SCF Done:  E(UM062X) =  -290.907591699     A.U. after    7 cycles
 SCF Done:  E(UM062X) =  -290.907612751     A.U. after    6 cycles
 SCF Done:  E(UM062X) =  -290.907618274     A.U. after    5 cycles
 Optimization completed.
    -- Stationary point found.

                          Input orientation:
 ---------------------------------------------------------------------
 Center     Atomic      Atomic             Coordinates (Angstroms)
 Number     Number       Type             X           Y           Z
 ---------------------------------------------------------------------
      1         14           0       -1.524781   -0.000058   -0.000012
      2          1           0       -1.524586   -0.732247    1.268686
      3          1           0       -1.525300    1.464767    0.000013
      4          1           0       -1.523739   -0.732585   -1.268522
 ---------------------------------------------------------------------

 Alpha  occ. eigenvalues --  -67.33684  -5.88430  -4.19965  -4.19146  -4.19146
 Alpha  occ. eigenvalues --   -0.89032  -0.69730  -0.69728
 Alpha virt. eigenvalues --   -0.34365  -0.18575  -0.14982  -0.14979  -0.14121
 Alpha virt. eigenvalues --   -0.10471  -0.10471  -0.09589   0.09459   0.09460
 Alpha virt. eigenvalues --    0.11152   0.14794   0.18902   0.18906   0.22562

  Beta  occ. eigenvalues --  -67.33684  -5.88430  -4.19965  -4.19146  -4.19146
  Beta  occ. eigenvalues --   -0.89032  -0.69730  -0.69728
  Beta virt. eigenvalues --   -0.34365  -0.18575  -0.14982  -0.14979  -0.14121
  Beta virt. eigenvalues --   -0.10471  -0.10471  -0.09589   0.09459   0.09460
  Beta virt. eigenvalues --    0.11152   0.14794   0.18902   0.18906   0.22562

 Mulliken charges and spin densities:
               1          2
     1  Si   0.903767   0.000000
     2  H    0.032073   0.000000
     3  H    0.032075   0.000000
     4  H    0.032086  -0.000000
 Sum of Mulliken charges =   1.00000   0.00000

 Dipole moment (field-independent basis, Debye):
    X=             -7.3242    Y=             -0.0004    Z=             -0.0002  Tot=              7.3242
 Quadrupole moment (field-independent basis, Debye-Ang):
   XX=              1.8864   YY=            -10.8410   ZZ=            -10.8408
   XY=              0.0014   XZ=              0.0009   YZ=              0.0003

 Normal termination of Gaussian 16 at Wed Apr 16 08:54:20 2025.
