 Gaussian 16, Revision A.03,
 Gaussian 16:  ES64L-G16RevA.03 25-Dec-2016

 --------------------------------------------
 #p opt UM062X/6-311+G** nosymm int=superfine
 --------------------------------------------

 -------------------
 Title Card Required
 -------------------
 Symbolic Z-matrix:
 Charge =  0 Multiplicity = 1

 SCF Done:  E(UM062X) =  -110.551892349     A.U. after   10 cycles
 SCF Done:  E(UM062X) =  -110.555979186     A.U. after    9 cycles
 SCF Done:  E(UM062X) =  -110.556797664     A.U. after    9 cycles
 Optimization completed.
    -- Stationary point found.

                          Input orientation:
 ---------------------------------------------------------------------
 Center     Atomic      Atomic             Coordinates (Angstroms)
 Number     Number       Type             X           Y           Z
 ---------------------------------------------------------------------
      1          7           0       -0.765428    0.000000    0.000000
      2          7           0        0.765428    0.000000    0.000000
      3          1           0       -0.924249   -1.016478   -0.000000
      4          1           0        0.924249    1.016478   -0.000000
 ---------------------------------------------------------------------

 Alpha  occ. eigenvalues --  -14.84857 -14.84827  -1.04478  -0.83138  -0.51576
 Alpha  occ. eigenvalues --   -0.51512  -0.40218  -0.37303
 Alpha virt. eigenvalues --   -0.08742   0.05695   0.06205   0.09162   0.11710
 Alpha virt. eigenvalues --    0.13103   0.15520   0.16830   0.18579   0.19547
 Alpha virt. eigenvalues --    0.22286   0.26577   0.55118   0.58045   0.74221

  Beta  occ. eigenvalues --  -14.84857 -14.84827  -1.04478  -0.83138  -0.51576
  Beta  occ. eigenvalues --   -0.51512  -0.40218  -0.37303
  Beta virt. eigenvalues --   -0.08742   0.05695   0.06205   0.09162   0.11710
  Beta virt. eigenvalues --    0.13103   0.15520   0.16830   0.18579   0.19547
  Beta virt. eigenvalues --    0.22286   0.26577   0.55118   0.58045   0.74221

 Mulliken charges and spin densities:
               1          2
     1  N   -0.248504   0.000000
     2  N   -0.248504  -0.000000
     3  H    0.248504  -0.000000
     4  H    0.248504   0.000000
 Sum of Mulliken charges =  -0.00000   0.00000

 Dipole moment (field-independent basis, Debye):
    X=              0.0000    Y=             -0.0000    Z=             -0.0000  Tot=              0.0000
 Quadrupole moment (field-independent basis, Debye-Ang):
   XX=            -13.6450   YY=            -10.5391   ZZ=            -13.1186
   XY=              3.8473   XZ=             -0.0000   YZ=              0.0000

 Normal termination of Gaussian 16 at Thu May 15 15:32:50 2025.
