 Gaussian 16, Revision A.03,
 Gaussian 16:  ES64L-G16RevA.03 25-Dec-2016

 --------------------------------------------
 #p opt UM062X/6-311+G** nosymm int=superfine
 --------------------------------------------

 -------------------
 Title Card Required
 -------------------
 Symbolic Z-matrix:
 Charge = -1 Multiplicity = 2

 SCF Done:  E(UM062X) =  -53.2228757300     A.U. after   11 cycles
 SCF Done:  E(UM062X) =  -53.2243106206     A.U. after   10 cycles
 SCF Done:  E(UM062X) =  -53.2246011024     A.U. after   10 cycles
 Optimization completed.
    -- Stationary point found.

                          Input orientation:
 ---------------------------------------------------------------------
 Center     Atomic      Atomic             Coordinates (Angstroms)
 Number     Number       Type             X           Y           Z
 ---------------------------------------------------------------------
      1          5           0       -1.465672    0.000000    0.000000
      2          5           0        1.465672    0.000000    0.000000
      3          1           0        1.591708   -1.193902   -0.000010
      4          1           0       -1.591574   -0.596956    1.033959
      5          1           0        1.591722    0.596972   -1.033933
      6          1           0        1.591528    0.596942    1.033972
      7          1           0       -1.591715    1.193901    0.000002
      8          1           0       -1.591669   -0.596960   -1.033946
 ---------------------------------------------------------------------

 Alpha  occ. eigenvalues --   -6.82339  -6.82336  -0.39188  -0.36719  -0.20477
 Alpha  occ. eigenvalues --   -0.20477  -0.19072  -0.19072  -0.00656
 Alpha virt. eigenvalues --    0.15297   0.17225   0.17589   0.17589   0.19011
 Alpha virt. eigenvalues --    0.19011   0.22007   0.22874   0.23114   0.32977
 Alpha virt. eigenvalues --    0.32977   0.36596   0.36596   0.38965   0.40469

  Beta  occ. eigenvalues --   -6.82287  -6.82286  -0.36869  -0.35203  -0.20099
  Beta  occ. eigenvalues --   -0.20099  -0.18892  -0.18892
  Beta virt. eigenvalues --    0.13659   0.14781   0.16938   0.16938   0.17239
  Beta virt. eigenvalues --    0.18551   0.18551   0.23850   0.24215   0.29037
  Beta virt. eigenvalues --    0.32645   0.32645   0.36650   0.36651   0.39357

 Mulliken charges and spin densities:
               1          2
     1  B   -0.287260   0.604272
     2  B   -0.287260   0.604272
     3  H   -0.070917  -0.034759
     4  H   -0.070908  -0.034756
     5  H   -0.070917  -0.034758
     6  H   -0.070906  -0.034755
     7  H   -0.070918  -0.034759
     8  H   -0.070914  -0.034757
 Sum of Mulliken charges =  -1.00000   1.00000

 Dipole moment (field-independent basis, Debye):
    X=              0.0000    Y=             -0.0000    Z=              0.0000  Tot=              0.0000
 Quadrupole moment (field-independent basis, Debye-Ang):
   XX=            -35.5385   YY=            -24.0822   ZZ=            -24.0821
   XY=              0.0000   XZ=              0.0000   YZ=              0.0000

 Normal termination of Gaussian 16 at Mon Apr 21 16:52:01 2025.
