 Gaussian 16, Revision A.03,
 Gaussian 16:  ES64L-G16RevA.03 25-Dec-2016

 --------------------------------------------
 #p opt UM062X/6-311+G** nosymm int=superfine
 --------------------------------------------

 -------------------
 Title Card Required
 -------------------
 Symbolic Z-matrix:
 Charge =  0 Multiplicity = 1

 SCF Done:  E(UM062X) =  -582.525850588     A.U. after    9 cycles
 SCF Done:  E(UM062X) =  -582.525854768     A.U. after    6 cycles
 SCF Done:  E(UM062X) =  -582.525855109     A.U. after    6 cycles
 Optimization completed.
    -- Stationary point found.

                          Input orientation:
 ---------------------------------------------------------------------
 Center     Atomic      Atomic             Coordinates (Angstroms)
 Number     Number       Type             X           Y           Z
 ---------------------------------------------------------------------
      1         14           0       -1.194819    0.000000    0.000000
      2         14           0        1.194819    0.000000    0.000000
      3          1           0        1.703230   -1.391282    0.000001
      4          1           0       -1.703231   -0.695535    1.204947
      5          1           0        1.703315    0.695615   -1.204864
      6          1           0        1.703233    0.695586    1.204917
      7          1           0       -1.703232    1.391281   -0.000061
      8          1           0       -1.703315   -0.695667   -1.204834
 ---------------------------------------------------------------------

 Alpha  occ. eigenvalues --  -66.99002 -66.99002  -5.54210  -5.54204  -3.85356
 Alpha  occ. eigenvalues --   -3.85313  -3.85313  -3.85310  -3.85309  -3.85309
 Alpha  occ. eigenvalues --   -0.64102  -0.57881  -0.42096  -0.42096  -0.39665
 Alpha  occ. eigenvalues --   -0.39665  -0.33982
 Alpha virt. eigenvalues --    0.01231   0.01850   0.03268   0.03268   0.04310
 Alpha virt. eigenvalues --    0.05252   0.05252   0.05719   0.05719   0.07567
 Alpha virt. eigenvalues --    0.08887   0.08887   0.10346   0.15874   0.18190

  Beta  occ. eigenvalues --  -66.99002 -66.99002  -5.54210  -5.54204  -3.85356
  Beta  occ. eigenvalues --   -3.85313  -3.85313  -3.85310  -3.85309  -3.85309
  Beta  occ. eigenvalues --   -0.64102  -0.57881  -0.42096  -0.42096  -0.39665
  Beta  occ. eigenvalues --   -0.39665  -0.33982
  Beta virt. eigenvalues --    0.01231   0.01850   0.03268   0.03268   0.04310
  Beta virt. eigenvalues --    0.05252   0.05252   0.05719   0.05719   0.07567
  Beta virt. eigenvalues --    0.08887   0.08887   0.10346   0.15874   0.18190

 Mulliken charges and spin densities:
               1          2
     1  Si   0.300343   0.000000
     2  Si   0.300343  -0.000000
     3  H   -0.100115   0.000000
     4  H   -0.100114  -0.000000
     5  H   -0.100113   0.000000
     6  H   -0.100114   0.000000
     7  H   -0.100115  -0.000000
     8  H   -0.100113  -0.000000
 Sum of Mulliken charges =  -0.00000  -0.00000

 Dipole moment (field-independent basis, Debye):
    X=              0.0000    Y=              0.0000    Z=             -0.0001  Tot=              0.0001
 Quadrupole moment (field-independent basis, Debye-Ang):
   XX=            -32.2345   YY=            -31.3231   ZZ=            -31.3230
   XY=              0.0003   XZ=             -0.0000   YZ=             -0.0000

 Normal termination of Gaussian 16 at Mon Apr 21 20:18:14 2025.
