 Gaussian 16, Revision A.03,
 Gaussian 16:  ES64L-G16RevA.03 25-Dec-2016

 ---------------------------------------
 #p UM062X/6-311+G** force int=superfine
 ---------------------------------------

 -------------------
 Title Card Required
 -------------------
 Symbolic Z-matrix:
 Charge =  1 Multiplicity = 2

                         Standard orientation:
 ---------------------------------------------------------------------
 Center     Atomic      Atomic             Coordinates (Angstroms)
 Number     Number       Type             X           Y           Z
 ---------------------------------------------------------------------
      1          6           0        0.741788   -0.000046   -0.010067
      2          6           0       -0.741813    0.000296    0.010075
      3          1           0       -1.243193    0.919201    0.306622
      4          1           0        1.243729    0.915528   -0.316445
      5          1           0       -1.243990   -0.914958    0.317228
      6          1           0       -0.710348   -0.008088   -1.155151
      7          1           0        1.243399   -0.918613   -0.307508
      8          1           0        0.710554    0.005429    1.155205
 ---------------------------------------------------------------------

 SCF Done:  E(UM062X) =  -79.3707220351     A.U. after   12 cycles

 The electronic state is 2-A.
 Alpha  occ. eigenvalues --  -10.84447 -10.84401  -1.18511  -0.98782  -0.82753
 Alpha  occ. eigenvalues --   -0.80926  -0.75637  -0.70083  -0.65172
 Alpha virt. eigenvalues --   -0.17384  -0.12570  -0.12349  -0.11899  -0.10931
 Alpha virt. eigenvalues --   -0.07761  -0.06457  -0.05698  -0.05120  -0.02151
 Alpha virt. eigenvalues --   -0.00472   0.01697   0.03615   0.04415   0.05360

  Beta  occ. eigenvalues --  -10.84251 -10.84204  -1.15725  -0.95889  -0.80160
  Beta  occ. eigenvalues --   -0.77024  -0.74250  -0.69498
  Beta virt. eigenvalues --   -0.43275  -0.17205  -0.12795  -0.11820  -0.11749
  Beta virt. eigenvalues --   -0.10507  -0.07796  -0.06482  -0.05404  -0.03374
  Beta virt. eigenvalues --   -0.01895  -0.00013   0.02040   0.04351   0.05230

 Mulliken charges and spin densities:
               1          2
     1  C   -0.385124   0.288540
     2  C   -0.385013   0.288626
     3  H    0.279850  -0.007294
     4  H    0.279974  -0.007181
     5  H    0.280011  -0.007059
     6  H    0.325202   0.225747
     7  H    0.279887  -0.007158
     8  H    0.325213   0.225778
 Sum of Mulliken charges =   1.00000   1.00000

 Dipole moment (field-independent basis, Debye):
    X=              0.0001    Y=             -0.0023    Z=              0.0000  Tot=              0.0023
 Quadrupole moment (field-independent basis, Debye-Ang):
   XX=             -8.2147   YY=            -10.9233   ZZ=             -9.7048
   XY=              0.0056   XZ=              0.6710   YZ=              0.0091

 Normal termination of Gaussian 16 at Tue Nov 19 08:42:36 2024.
