 Gaussian 16, Revision A.03,
 Gaussian 16:  ES64L-G16RevA.03 25-Dec-2016

 --------------------------------------------
 #p opt UM062X/6-311+G** nosymm int=superfine
 --------------------------------------------

 -------------------
 Title Card Required
 -------------------
 Symbolic Z-matrix:
 Charge =  0 Multiplicity = 1

 SCF Done:  E(UM062X) =  -797.394975866     A.U. after   14 cycles
 SCF Done:  E(UM062X) =  -797.395221370     A.U. after   12 cycles
 SCF Done:  E(UM062X) =  -797.395736256     A.U. after   13 cycles
 SCF Done:  E(UM062X) =  -797.396172911     A.U. after   14 cycles
 SCF Done:  E(UM062X) =  -797.396182880     A.U. after   13 cycles
 SCF Done:  E(UM062X) =  -797.396173264     A.U. after   13 cycles
 SCF Done:  E(UM062X) =  -797.396179650     A.U. after   12 cycles
 SCF Done:  E(UM062X) =  -797.396191001     A.U. after   13 cycles
 SCF Done:  E(UM062X) =  -797.396181755     A.U. after   13 cycles
 SCF Done:  E(UM062X) =  -797.395471535     A.U. after   17 cycles
 SCF Done:  E(UM062X) =  -797.396186261     A.U. after   13 cycles
 SCF Done:  E(UM062X) =  -797.396191848     A.U. after   12 cycles
 SCF Done:  E(UM062X) =  -797.396192304     A.U. after   14 cycles
 SCF Done:  E(UM062X) =  -797.396192334     A.U. after   16 cycles
 Optimization completed.
    -- Stationary point found.

                          Input orientation:
 ---------------------------------------------------------------------
 Center     Atomic      Atomic             Coordinates (Angstroms)
 Number     Number       Type             X           Y           Z
 ---------------------------------------------------------------------
      1         16           0       -2.093191    0.000000    0.000000
      2         16           0        2.093191    0.000000    0.000000
      3          1           0       -1.940460   -1.308837   -0.275801
      4          1           0        1.938349    0.294019    1.304615
 ---------------------------------------------------------------------

 Alpha  occ. eigenvalues --  -89.94520 -89.94519  -8.30756  -8.30755  -6.22902
 Alpha  occ. eigenvalues --   -6.22901  -6.22651  -6.22650  -6.22083  -6.22083
 Alpha  occ. eigenvalues --   -0.81503  -0.81132  -0.47395  -0.47349  -0.33471
 Alpha  occ. eigenvalues --   -0.33319  -0.30936
 Alpha virt. eigenvalues --   -0.21685   0.01873   0.03054   0.04421   0.04843
 Alpha virt. eigenvalues --    0.06576   0.06831   0.07260   0.07396   0.09185
 Alpha virt. eigenvalues --    0.12929   0.30633   0.31110   0.32428   0.35464

  Beta  occ. eigenvalues --  -89.94520 -89.94519  -8.30756  -8.30755  -6.22902
  Beta  occ. eigenvalues --   -6.22901  -6.22651  -6.22650  -6.22083  -6.22083
  Beta  occ. eigenvalues --   -0.81503  -0.81132  -0.47395  -0.47349  -0.33471
  Beta  occ. eigenvalues --   -0.33319  -0.30936
  Beta virt. eigenvalues --   -0.21685   0.01873   0.03054   0.04421   0.04843
  Beta virt. eigenvalues --    0.06576   0.06831   0.07260   0.07396   0.09185
  Beta virt. eigenvalues --    0.12929   0.30633   0.31110   0.32428   0.35464

 Mulliken charges and spin densities:
               1          2
     1  S   -0.082786  -0.000000
     2  S   -0.082650  -0.000000
     3  H    0.082710   0.000000
     4  H    0.082725   0.000000
 Sum of Mulliken charges =  -0.00000  -0.00000

 Dipole moment (field-independent basis, Debye):
    X=             -0.0008    Y=             -0.8418    Z=              0.8537  Tot=              1.1989
 Quadrupole moment (field-independent basis, Debye-Ang):
   XX=            -25.5658   YY=            -28.0809   ZZ=            -28.1280
   XY=              2.6893   XZ=              2.6490   YZ=              1.6749

 Normal termination of Gaussian 16 at Mon Apr 21 21:19:11 2025.
