 Gaussian 16, Revision A.03,
 Gaussian 16:  ES64L-G16RevA.03 25-Dec-2016

 --------------------------------------------
 #p opt UM062X/6-311+G** nosymm int=superfine
 --------------------------------------------

 -------------------
 Title Card Required
 -------------------
 Symbolic Z-matrix:
 Charge =  0 Multiplicity = 1

 SCF Done:  E(UM062X) =  -51.8856782835     A.U. after    8 cycles
 SCF Done:  E(UM062X) =  -51.8885802851     A.U. after    8 cycles
 SCF Done:  E(UM062X) =  -51.8897784744     A.U. after    9 cycles
 SCF Done:  E(UM062X) =  -51.8897762992     A.U. after    8 cycles
 SCF Done:  E(UM062X) =  -51.8897769080     A.U. after    8 cycles
 SCF Done:  E(UM062X) =  -51.8897788918     A.U. after    8 cycles
 SCF Done:  E(UM062X) =  -51.8897790145     A.U. after    7 cycles
 Optimization completed.
    -- Stationary point found.

                          Input orientation:
 ---------------------------------------------------------------------
 Center     Atomic      Atomic             Coordinates (Angstroms)
 Number     Number       Type             X           Y           Z
 ---------------------------------------------------------------------
      1          5           0       -1.395607    0.000000    0.000000
      2          5           0        1.395607    0.000000    0.000000
      3          1           0       -1.918828   -1.060210   -0.002747
      4          1           0        1.918828    1.060180   -0.008415
      5          1           0       -1.918828    1.060210    0.002807
      6          1           0        1.918829   -1.060181    0.008351
 ---------------------------------------------------------------------

 Alpha  occ. eigenvalues --   -7.09755  -7.09751  -0.57544  -0.55935  -0.43560
 Alpha  occ. eigenvalues --   -0.42738  -0.25342
 Alpha virt. eigenvalues --   -0.05704  -0.01803   0.00375   0.02306   0.03952
 Alpha virt. eigenvalues --    0.04848   0.05952   0.06199   0.07338   0.07981
 Alpha virt. eigenvalues --    0.10733   0.15948   0.17352   0.18100   0.26127

  Beta  occ. eigenvalues --   -7.09755  -7.09751  -0.57544  -0.55935  -0.43560
  Beta  occ. eigenvalues --   -0.42738  -0.25342
  Beta virt. eigenvalues --   -0.05704  -0.01803   0.00375   0.02306   0.03952
  Beta virt. eigenvalues --    0.04848   0.05952   0.06199   0.07338   0.07981
  Beta virt. eigenvalues --    0.10733   0.15948   0.17352   0.18100   0.26127

 Mulliken charges and spin densities:
               1          2
     1  B   -0.045076  -0.000000
     2  B   -0.045077   0.000000
     3  H    0.022538  -0.000000
     4  H    0.022538   0.000000
     5  H    0.022538   0.000000
     6  H    0.022538   0.000000
 Sum of Mulliken charges =  -0.00000  -0.00000

 Dipole moment (field-independent basis, Debye):
    X=             -0.0000    Y=              0.0000    Z=              0.0000  Tot=              0.0000
 Quadrupole moment (field-independent basis, Debye-Ang):
   XX=            -15.0524   YY=            -16.8732   ZZ=            -13.7611
   XY=              0.0000   XZ=              0.0002   YZ=              0.0082

 Normal termination of Gaussian 16 at Mon Apr 21 17:11:27 2025.
