 Gaussian 16, Revision A.03,
 Gaussian 16:  ES64L-G16RevA.03 25-Dec-2016

 --------------------------------------------
 #p opt UM062X/6-311+G** nosymm int=superfine
 --------------------------------------------

 -------------------
 Title Card Required
 -------------------
 Symbolic Z-matrix:
 Charge =  0 Multiplicity = 1

 SCF Done:  E(UM062X) =  -115.535673270     A.U. after   61 cycles
 SCF Done:  E(UM062X) =  -115.542512903     A.U. after   10 cycles
 SCF Done:  E(UM062X) =  -115.546748342     A.U. after   12 cycles
 SCF Done:  E(UM062X) =  -115.547224409     A.U. after   10 cycles
 SCF Done:  E(UM062X) =  -115.547312719     A.U. after   12 cycles
 SCF Done:  E(UM062X) =  -115.547316462     A.U. after    8 cycles
 SCF Done:  E(UM062X) =  -115.547321420     A.U. after    9 cycles
 SCF Done:  E(UM062X) =  -115.547342645     A.U. after   11 cycles
 SCF Done:  E(UM062X) =  -115.547567451     A.U. after   23 cycles
 SCF Done:  E(UM062X) =  -115.547658904     A.U. after   27 cycles
 SCF Done:  E(UM062X) =  -115.548822339     A.U. after   31 cycles
 SCF Done:  E(UM062X) =  -115.548942503     A.U. after   13 cycles
 SCF Done:  E(UM062X) =  -115.548697389     A.U. after   36 cycles
 SCF Done:  E(UM062X) =  -115.549288989     A.U. after   53 cycles
 SCF Done:  E(UM062X) =  -115.549616263     A.U. after   34 cycles
 SCF Done:  E(UM062X) =  -115.549857150     A.U. after   43 cycles
 SCF Done:  E(UM062X) =  -115.549894230     A.U. after   24 cycles
 SCF Done:  E(UM062X) =  -115.549895953     A.U. after   51 cycles
 SCF Done:  E(UM062X) =  -115.549895999     A.U. after   55 cycles
 SCF Done:  E(UM062X) =  -115.549896035     A.U. after    9 cycles
 Optimization completed.
    -- Stationary point found.

                          Input orientation:
 ---------------------------------------------------------------------
 Center     Atomic      Atomic             Coordinates (Angstroms)
 Number     Number       Type             X           Y           Z
 ---------------------------------------------------------------------
      1          6           0       -2.007203    0.000000    0.000000
      2          8           0        2.007203    0.000000    0.000000
      3          1           0        1.032373   -0.002540   -0.000887
      4          1           0       -2.055964   -0.465438    0.972725
      5          1           0       -2.044863    1.075571   -0.083332
      6          1           0       -2.055496   -0.609662   -0.889493
 ---------------------------------------------------------------------

 Alpha  occ. eigenvalues --  -19.67335 -10.56253  -1.05869  -0.79495  -0.52943
 Alpha  occ. eigenvalues --   -0.50688  -0.50686  -0.39977  -0.30612
 Alpha virt. eigenvalues --   -0.10235   0.01933   0.05183   0.05202   0.07017
 Alpha virt. eigenvalues --    0.13556   0.18006   0.18044   0.18277   0.19095
 Alpha virt. eigenvalues --    0.19252   0.19726   0.25199   0.42667   0.42686

  Beta  occ. eigenvalues --  -19.68923 -10.55578  -1.14120  -0.74730  -0.56086
  Beta  occ. eigenvalues --   -0.50044  -0.49407  -0.49401  -0.43611
  Beta virt. eigenvalues --   -0.07088   0.00132   0.04399   0.04448   0.09050
  Beta virt. eigenvalues --    0.12889   0.17589   0.17645   0.17970   0.18738
  Beta virt. eigenvalues --    0.18837   0.20131   0.26425   0.41813   0.41834

 Mulliken charges and spin densities:
               1          2
     1  C   -0.520138   1.138487
     2  O   -0.255638  -1.009100
     3  H    0.255849   0.016163
     4  H    0.173084  -0.048490
     5  H    0.173677  -0.048558
     6  H    0.173167  -0.048502
 Sum of Mulliken charges =   0.00000   0.00000

 Dipole moment (field-independent basis, Debye):
    X=             -2.1694    Y=             -0.0032    Z=             -0.0019  Tot=              2.1694
 Quadrupole moment (field-independent basis, Debye-Ang):
   XX=            -20.0774   YY=            -14.0960   ZZ=            -12.7528
   XY=              0.0072   XZ=             -0.0036   YZ=             -0.0025

 Normal termination of Gaussian 16 at Mon Apr 21 18:56:31 2025.
