 Gaussian 16, Revision A.03,
 Gaussian 16:  ES64L-G16RevA.03 25-Dec-2016

 ---------------------------------------
 #p UM062X/6-311+G** force int=superfine
 ---------------------------------------

 -------------------
 Title Card Required
 -------------------
 Symbolic Z-matrix:
 Charge =  0 Multiplicity = 1

                         Standard orientation:
 ---------------------------------------------------------------------
 Center     Atomic      Atomic             Coordinates (Angstroms)
 Number     Number       Type             X           Y           Z
 ---------------------------------------------------------------------
      1          6           0        0.000000    0.762303    0.000000
      2          6           0       -0.000000   -0.762303    0.000000
      3          1           0       -0.939769    1.296579    0.000000
      4          1           0        0.939721    1.296680    0.000000
      5          1           0        0.939769   -1.296579    0.000000
      6          1           0       -0.939721   -1.296680    0.000000
 ---------------------------------------------------------------------

 SCF Done:  E(UM062X) =  -78.5314075630     A.U. after    8 cycles

 The electronic state is 1-AG.
 Alpha  occ. eigenvalues --  -10.56741 -10.56696  -0.82262  -0.68085  -0.53408
 Alpha  occ. eigenvalues --   -0.45527  -0.44893  -0.30540
 Alpha virt. eigenvalues --   -0.00462   0.03386   0.03849   0.05296   0.07888
 Alpha virt. eigenvalues --    0.08213   0.09718   0.12307   0.15910   0.16998
 Alpha virt. eigenvalues --    0.20581   0.21727   0.29376   0.30094   0.42312

  Beta  occ. eigenvalues --  -10.56741 -10.56696  -0.82262  -0.68085  -0.53408
  Beta  occ. eigenvalues --   -0.45527  -0.44893  -0.30540
  Beta virt. eigenvalues --   -0.00462   0.03386   0.03849   0.05296   0.07888
  Beta virt. eigenvalues --    0.08213   0.09718   0.12307   0.15910   0.16998
  Beta virt. eigenvalues --    0.20581   0.21727   0.29376   0.30094   0.42312

 Mulliken charges and spin densities:
               1          2
     1  C   -0.318668   0.000000
     2  C   -0.318668   0.000000
     3  H    0.159331   0.000000
     4  H    0.159337  -0.000000
     5  H    0.159331   0.000000
     6  H    0.159337  -0.000000
 Sum of Mulliken charges =  -0.00000   0.00000

 Dipole moment (field-independent basis, Debye):
    X=             -0.0000    Y=              0.0000    Z=              0.0000  Tot=              0.0000
 Quadrupole moment (field-independent basis, Debye-Ang):
   XX=            -12.2662   YY=            -12.0316   ZZ=            -16.7073
   XY=              0.0002   XZ=              0.0000   YZ=              0.0000

 Normal termination of Gaussian 16 at Tue Nov 19 11:45:47 2024.
