 Gaussian 16, Revision A.03,
 Gaussian 16:  ES64L-G16RevA.03 25-Dec-2016

 --------------------------------------------
 #p opt UM062X/6-311+G** nosymm int=superfine
 --------------------------------------------

 -------------------
 Title Card Required
 -------------------
 Symbolic Z-matrix:
 Charge =  0 Multiplicity = 1

 SCF Done:  E(UM062X) =  -78.1684961444     A.U. after    8 cycles
 SCF Done:  E(UM062X) =  -78.1697175857     A.U. after    9 cycles
 SCF Done:  E(UM062X) =  -78.1704260660     A.U. after    9 cycles
 SCF Done:  E(UM062X) =  -78.1704275028     A.U. after    8 cycles
 Optimization completed.
    -- Stationary point found.

                          Input orientation:
 ---------------------------------------------------------------------
 Center     Atomic      Atomic             Coordinates (Angstroms)
 Number     Number       Type             X           Y           Z
 ---------------------------------------------------------------------
      1          6           0       -1.485595    0.000000    0.000000
      2          6           0        1.485595    0.000000    0.000000
      3          1           0       -1.863904   -1.008933    0.000000
      4          1           0       -1.863895    1.008937    0.000000
      5          1           0        1.863904    1.008933   -0.000000
      6          1           0        1.863895   -1.008937   -0.000000
 ---------------------------------------------------------------------

 Alpha  occ. eigenvalues --  -10.63267 -10.63263  -0.75716  -0.74474  -0.54021
 Alpha  occ. eigenvalues --   -0.53579  -0.29049  -0.22815
 Alpha virt. eigenvalues --   -0.12052  -0.10001   0.03394   0.05080   0.05238
 Alpha virt. eigenvalues --    0.06872   0.09314   0.10483   0.11045   0.13585
 Alpha virt. eigenvalues --    0.16185   0.18255   0.21460   0.26822   0.40934

  Beta  occ. eigenvalues --  -10.63267 -10.63263  -0.75716  -0.74474  -0.54021
  Beta  occ. eigenvalues --   -0.53579  -0.29049  -0.22815
  Beta virt. eigenvalues --   -0.12052  -0.10001   0.03394   0.05080   0.05238
  Beta virt. eigenvalues --    0.06872   0.09314   0.10483   0.11045   0.13585
  Beta virt. eigenvalues --    0.16185   0.18255   0.21460   0.26822   0.40934

 Mulliken charges and spin densities:
               1          2
     1  C   -0.389302  -0.000000
     2  C   -0.389302   0.000000
     3  H    0.194651   0.000000
     4  H    0.194651   0.000000
     5  H    0.194651  -0.000000
     6  H    0.194651  -0.000000
 Sum of Mulliken charges =  -0.00000  -0.00000

 Dipole moment (field-independent basis, Debye):
    X=              0.0000    Y=              0.0000    Z=              0.0000  Tot=              0.0000
 Quadrupole moment (field-independent basis, Debye-Ang):
   XX=             -9.3716   YY=            -11.7752   ZZ=            -19.1714
   XY=              0.0000   XZ=             -0.0000   YZ=             -0.0000

 Normal termination of Gaussian 16 at Tue Dec  3 11:09:28 2024.
