 Gaussian 16, Revision A.03,
 Gaussian 16:  ES64L-G16RevA.03 25-Dec-2016

 --------------------------------------------
 #p opt UM062X/6-311+G** nosymm int=superfine
 --------------------------------------------

 -------------------
 Title Card Required
 -------------------
 Symbolic Z-matrix:
 Charge =  0 Multiplicity = 1

 SCF Done:  E(UM062X) =  -379.554985100     A.U. after   14 cycles
 SCF Done:  E(UM062X) =  -379.556426727     A.U. after   10 cycles
 SCF Done:  E(UM062X) =  -379.556433095     A.U. after   10 cycles
 Optimization completed.
    -- Stationary point found.

                          Input orientation:
 ---------------------------------------------------------------------
 Center     Atomic      Atomic             Coordinates (Angstroms)
 Number     Number       Type             X           Y           Z
 ---------------------------------------------------------------------
      1          6           0       -2.040377    0.000000    0.000000
      2         15           0        2.040377    0.000000    0.000000
      3          1           0       -3.163453    0.000000    0.000000
 ---------------------------------------------------------------------

 Alpha  occ. eigenvalues --  -78.06596 -10.72225  -6.88528  -5.00449  -4.99501
 Alpha  occ. eigenvalues --   -4.99501  -0.76994  -0.60076  -0.42625  -0.23225
 Alpha  occ. eigenvalues --   -0.23225
 Alpha virt. eigenvalues --   -0.15916  -0.15916  -0.11562   0.01033   0.04211
 Alpha virt. eigenvalues --    0.05959   0.05959   0.07623   0.08312   0.08312
 Alpha virt. eigenvalues --    0.12779   0.15714   0.32870   0.33666   0.33666

  Beta  occ. eigenvalues --  -78.06596 -10.72225  -6.88528  -5.00449  -4.99501
  Beta  occ. eigenvalues --   -4.99501  -0.76994  -0.60076  -0.42625  -0.23225
  Beta  occ. eigenvalues --   -0.23225
  Beta virt. eigenvalues --   -0.15916  -0.15916  -0.11562   0.01033   0.04211
  Beta virt. eigenvalues --    0.05959   0.05959   0.07623   0.08312   0.08312
  Beta virt. eigenvalues --    0.12779   0.15714   0.32870   0.33666   0.33666

 Mulliken charges and spin densities:
               1          2
     1  C   -0.071293   0.000000
     2  P   -0.088749  -0.000000
     3  H    0.160042  -0.000000
 Sum of Mulliken charges =  -0.00000  -0.00000

 Dipole moment (field-independent basis, Debye):
    X=             -3.7134    Y=              0.0000    Z=              0.0000  Tot=              3.7134
 Quadrupole moment (field-independent basis, Debye-Ang):
   XX=             -9.8754   YY=            -24.1626   ZZ=            -24.1626
   XY=             -0.0000   XZ=             -0.0000   YZ=             -0.0000

 Normal termination of Gaussian 16 at Mon Apr 21 19:30:09 2025.
