 Gaussian 16, Revision A.03,
 Gaussian 16:  ES64L-G16RevA.03 25-Dec-2016

 --------------------------------------------
 #p opt UM062X/6-311+G** nosymm int=superfine
 --------------------------------------------

 -------------------
 Title Card Required
 -------------------
 Symbolic Z-matrix:
 Charge =  0 Multiplicity = 1

 SCF Done:  E(UM062X) =  -382.224811530     A.U. after   18 cycles
 SCF Done:  E(UM062X) =  -382.235482621     A.U. after   14 cycles
 SCF Done:  E(UM062X) =  -382.242189374     A.U. after   13 cycles
 SCF Done:  E(UM062X) =  -382.242312797     A.U. after   12 cycles
 SCF Done:  E(UM062X) =  -382.242372342     A.U. after   12 cycles
 SCF Done:  E(UM062X) =  -382.242444437     A.U. after   12 cycles
 SCF Done:  E(UM062X) =  -382.242474770     A.U. after   12 cycles
 SCF Done:  E(UM062X) =  -382.242478927     A.U. after    9 cycles
 SCF Done:  E(UM062X) =  -382.242479676     A.U. after   10 cycles
 SCF Done:  E(UM062X) =  -382.242480872     A.U. after    9 cycles
 SCF Done:  E(UM062X) =  -382.242481646     A.U. after   10 cycles
 SCF Done:  E(UM062X) =  -382.242481988     A.U. after    8 cycles
 Optimization completed.
    -- Stationary point found.

                          Input orientation:
 ---------------------------------------------------------------------
 Center     Atomic      Atomic             Coordinates (Angstroms)
 Number     Number       Type             X           Y           Z
 ---------------------------------------------------------------------
      1          6           0       -2.181264    0.000000    0.000000
      2         15           0        2.181264    0.000000    0.000000
      3          1           0        2.099021   -1.417057    0.022730
      4          1           0       -2.199427    1.054289    0.234292
      5          1           0        2.098415    0.072803    1.415304
      6          1           0       -2.199516   -0.323122   -1.030540
      7          1           0       -2.239464   -0.729623    0.794551
 ---------------------------------------------------------------------

 Alpha  occ. eigenvalues --  -78.02992 -10.59811  -6.85417  -4.96939  -4.96865
 Alpha  occ. eigenvalues --   -4.96683  -0.79205  -0.69365  -0.51404  -0.51372
 Alpha  occ. eigenvalues --   -0.43530  -0.34629  -0.22809
 Alpha virt. eigenvalues --   -0.13817   0.02110   0.03763   0.03976   0.04494
 Alpha virt. eigenvalues --    0.06130   0.06598   0.07223   0.07345   0.11004
 Alpha virt. eigenvalues --    0.16447   0.17990   0.18043   0.22575   0.30547

  Beta  occ. eigenvalues --  -78.02992 -10.59811  -6.85417  -4.96939  -4.96865
  Beta  occ. eigenvalues --   -4.96683  -0.79205  -0.69365  -0.51404  -0.51372
  Beta  occ. eigenvalues --   -0.43530  -0.34629  -0.22809
  Beta virt. eigenvalues --   -0.13817   0.02110   0.03763   0.03976   0.04494
  Beta virt. eigenvalues --    0.06130   0.06598   0.07223   0.07345   0.11004
  Beta virt. eigenvalues --    0.16447   0.17990   0.18043   0.22575   0.30547

 Mulliken charges and spin densities:
               1          2
     1  C   -0.486033  -0.000001
     2  P   -0.048423   0.000001
     3  H   -0.008638  -0.000000
     4  H    0.184701   0.000000
     5  H   -0.008638  -0.000000
     6  H    0.184669   0.000000
     7  H    0.182363   0.000000
 Sum of Mulliken charges =  -0.00000   0.00000

 Dipole moment (field-independent basis, Debye):
    X=             -1.7951    Y=             -0.5803    Z=              0.6209  Tot=              1.9861
 Quadrupole moment (field-independent basis, Debye-Ang):
   XX=            -22.5721   YY=            -22.4394   ZZ=            -22.5348
   XY=             -1.3521   XZ=              1.4454   YZ=              0.7053

 Normal termination of Gaussian 16 at Mon Apr 21 19:10:17 2025.
