 Gaussian 16, Revision A.03,
 Gaussian 16:  ES64L-G16RevA.03 25-Dec-2016

 -------------------------------------------------------------------
 #p opt UM062X/6-311+G** nosymm int=superfine SCF=NoVarAcc SCF=tight
 -------------------------------------------------------------------

 -------------------
 Title Card Required
 -------------------
 Symbolic Z-matrix:
 Charge =  1 Multiplicity = 2

 SCF Done:  E(UM062X) =  -79.3153708629     A.U. after   25 cycles
 SCF Done:  E(UM062X) =  -79.3154493989     A.U. after    9 cycles
 SCF Done:  E(UM062X) =  -79.3154727043     A.U. after    9 cycles
 SCF Done:  E(UM062X) =  -79.3154850668     A.U. after    9 cycles
 SCF Done:  E(UM062X) =  -79.3154858232     A.U. after    8 cycles
 Optimization completed.
    -- Stationary point found.

                          Input orientation:
 ---------------------------------------------------------------------
 Center     Atomic      Atomic             Coordinates (Angstroms)
 Number     Number       Type             X           Y           Z
 ---------------------------------------------------------------------
      1          6           0       -7.282675    0.000000    0.000000
      2          6           0        7.282675    0.000000    0.000000
      3          1           0        7.283097   -0.936691    0.542422
      4          1           0       -7.283919   -0.937671   -0.540732
      5          1           0        7.286063    0.938104    0.539965
      6          1           0        7.284818   -0.001414   -1.082408
      7          1           0       -7.285588    0.937151   -0.541609
      8          1           0       -7.284423    0.000367    1.082410
 ---------------------------------------------------------------------

 Alpha  occ. eigenvalues --  -10.78598 -10.78598  -0.97364  -0.97360  -0.68612
 Alpha  occ. eigenvalues --   -0.68611  -0.68610  -0.68609  -0.38860
 Alpha virt. eigenvalues --   -0.36889  -0.08294  -0.08292  -0.04797  -0.04796
 Alpha virt. eigenvalues --   -0.04796  -0.04796  -0.02730  -0.02729   0.04678
 Alpha virt. eigenvalues --    0.04679   0.04679   0.04681   0.04764   0.04766

  Beta  occ. eigenvalues --  -10.78356 -10.78356  -0.94694  -0.94694  -0.68038
  Beta  occ. eigenvalues --   -0.68036  -0.68036  -0.68035
  Beta virt. eigenvalues --   -0.23644  -0.23644  -0.08838  -0.08838  -0.04429
  Beta virt. eigenvalues --   -0.04429  -0.04429  -0.04428  -0.00774  -0.00774
  Beta virt. eigenvalues --    0.04974   0.04976   0.04976   0.04977   0.06220

 Mulliken charges and spin densities:
               1          2
     1  C   -0.191014   0.566899
     2  C   -0.191015   0.566899
     3  H    0.230335  -0.022299
     4  H    0.230334  -0.022300
     5  H    0.230342  -0.022299
     6  H    0.230338  -0.022300
     7  H    0.230345  -0.022299
     8  H    0.230335  -0.022300
 Sum of Mulliken charges =   1.00000   1.00000

 Dipole moment (field-independent basis, Debye):
    X=              0.0000    Y=             -0.0001    Z=              0.0000  Tot=              0.0001
 Quadrupole moment (field-independent basis, Debye-Ang):
   XX=            241.2573   YY=            -11.1275   ZZ=            -11.1279
   XY=              0.0016   XZ=             -0.0003   YZ=             -0.0003

 Normal termination of Gaussian 16 at Tue Dec  3 16:15:23 2024.
