 Gaussian 16, Revision A.03,
 Gaussian 16:  ES64L-G16RevA.03 25-Dec-2016

 --------------------------------------------
 #p opt UM062X/6-311+G** nosymm int=superfine
 --------------------------------------------

 -------------------
 Title Card Required
 -------------------
 Symbolic Z-matrix:
 Charge =  0 Multiplicity = 1

 SCF Done:  E(UM062X) =  -114.187751428     A.U. after   15 cycles
 SCF Done:  E(UM062X) =  -114.188831047     A.U. after   11 cycles
 SCF Done:  E(UM062X) =  -114.189365635     A.U. after   12 cycles
 SCF Done:  E(UM062X) =  -114.189418178     A.U. after   13 cycles
 SCF Done:  E(UM062X) =  -114.189419323     A.U. after   12 cycles
 SCF Done:  E(UM062X) =  -114.189418791     A.U. after   11 cycles
 SCF Done:  E(UM062X) =  -114.189419071     A.U. after   12 cycles
 SCF Done:  E(UM062X) =  -114.189419312     A.U. after   14 cycles
 Optimization completed.
    -- Stationary point found.

                          Input orientation:
 ---------------------------------------------------------------------
 Center     Atomic      Atomic             Coordinates (Angstroms)
 Number     Number       Type             X           Y           Z
 ---------------------------------------------------------------------
      1          6           0       -1.048311    0.000000    0.000000
      2          8           0        1.048311    0.000000    0.000000
      3          1           0       -1.532723   -0.970927   -0.000678
      4          1           0       -1.532723    0.970927   -0.000677
 ---------------------------------------------------------------------

 Alpha  occ. eigenvalues --  -19.66531 -10.72353  -0.97807  -0.82072  -0.59116
 Alpha  occ. eigenvalues --   -0.39646  -0.35056  -0.33422
 Alpha virt. eigenvalues --   -0.14752  -0.06699   0.00997   0.04195   0.06511
 Alpha virt. eigenvalues --    0.06885   0.13210   0.17423   0.21283   0.23906
 Alpha virt. eigenvalues --    0.26620   0.33134   0.39610   0.43517   0.53002

  Beta  occ. eigenvalues --  -19.66531 -10.72353  -0.97807  -0.82072  -0.59116
  Beta  occ. eigenvalues --   -0.39646  -0.35056  -0.33422
  Beta virt. eigenvalues --   -0.14752  -0.06699   0.00997   0.04195   0.06511
  Beta virt. eigenvalues --    0.06885   0.13210   0.17423   0.21283   0.23906
  Beta virt. eigenvalues --    0.26620   0.33134   0.39610   0.43517   0.53002

 Mulliken charges and spin densities:
               1          2
     1  C   -0.115144  -0.000000
     2  O   -0.308274   0.000000
     3  H    0.211709   0.000000
     4  H    0.211709   0.000000
 Sum of Mulliken charges =  -0.00000  -0.00000

 Dipole moment (field-independent basis, Debye):
    X=             -5.0521    Y=             -0.0000    Z=             -0.0016  Tot=              5.0521
 Quadrupole moment (field-independent basis, Debye-Ang):
   XX=             -9.6679   YY=            -11.6827   ZZ=            -13.0929
   XY=             -0.0000   XZ=             -0.0001   YZ=              0.0000

 Normal termination of Gaussian 16 at Mon Apr 21 18:50:01 2025.
