 Gaussian 16, Revision A.03,
 Gaussian 16:  ES64L-G16RevA.03 25-Dec-2016

 ---------------------------------------
 #p UM062X/6-311+G** force int=superfine
 ---------------------------------------

 -------------------
 Title Card Required
 -------------------
 Symbolic Z-matrix:
 Charge =  1 Multiplicity = 2

                         Standard orientation:
 ---------------------------------------------------------------------
 Center     Atomic      Atomic             Coordinates (Angstroms)
 Number     Number       Type             X           Y           Z
 ---------------------------------------------------------------------
      1          6           0       -0.756120    0.000016   -0.002015
      2          6           0        0.756147    0.000030    0.002043
      3          1           0        1.250952   -0.917482    0.310841
      4          1           0       -1.250898   -0.917784   -0.310027
      5          1           0        1.250736    0.918073    0.309567
      6          1           0        0.680496   -0.001041   -1.153840
      7          1           0       -1.250692    0.917726   -0.310571
      8          1           0       -0.680758    0.000231    1.153860
 ---------------------------------------------------------------------

 SCF Done:  E(UM062X) =  -79.3714224030     A.U. after   12 cycles

 The electronic state is 2-A.
 Alpha  occ. eigenvalues --  -10.84755 -10.84714  -1.18268  -0.98874  -0.82878
 Alpha  occ. eigenvalues --   -0.80813  -0.75566  -0.70439  -0.64936
 Alpha virt. eigenvalues --   -0.17426  -0.12550  -0.12344  -0.11842  -0.10907
 Alpha virt. eigenvalues --   -0.07740  -0.06463  -0.05700  -0.05198  -0.02131
 Alpha virt. eigenvalues --   -0.00407   0.01201   0.03578   0.04003   0.04601

  Beta  occ. eigenvalues --  -10.84546 -10.84506  -1.15402  -0.95990  -0.80031
  Beta  occ. eigenvalues --   -0.77348  -0.74104  -0.69866
  Beta virt. eigenvalues --   -0.43004  -0.17201  -0.12819  -0.11745  -0.11685
  Beta virt. eigenvalues --   -0.10488  -0.07791  -0.06496  -0.05418  -0.03392
  Beta virt. eigenvalues --   -0.01849   0.00091   0.01566   0.04315   0.04896

 Mulliken charges and spin densities:
               1          2
     1  C   -0.376889   0.316693
     2  C   -0.376753   0.316848
     3  H    0.278859  -0.010594
     4  H    0.278843  -0.010589
     5  H    0.278844  -0.010632
     6  H    0.319127   0.204446
     7  H    0.278844  -0.010615
     8  H    0.319124   0.204443
 Sum of Mulliken charges =   1.00000   1.00000

 Dipole moment (field-independent basis, Debye):
    X=              0.0001    Y=             -0.0006    Z=             -0.0002  Tot=              0.0006
 Quadrupole moment (field-independent basis, Debye-Ang):
   XX=             -8.2173   YY=            -10.9074   ZZ=             -9.7896
   XY=             -0.0003   XZ=             -0.5280   YZ=              0.0008

 Normal termination of Gaussian 16 at Tue Nov 19 08:42:47 2024.
