 Gaussian 16, Revision A.03,
 Gaussian 16:  ES64L-G16RevA.03 25-Dec-2016

 --------------------------------------------
 #p opt UM062X/6-311+G** nosymm int=superfine
 --------------------------------------------

 -------------------
 Title Card Required
 -------------------
 Symbolic Z-matrix:
 Charge =  1 Multiplicity = 2

 SCF Done:  E(UM062X) =  -79.3337903057     A.U. after   12 cycles
 SCF Done:  E(UM062X) =  -79.3542737489     A.U. after   13 cycles
 SCF Done:  E(UM062X) =  -79.3562736924     A.U. after   10 cycles
 SCF Done:  E(UM062X) =  -79.3563197027     A.U. after    9 cycles
 SCF Done:  E(UM062X) =  -79.3563330346     A.U. after    9 cycles
 SCF Done:  E(UM062X) =  -79.3596205669     A.U. after   12 cycles
 SCF Done:  E(UM062X) =  -79.3629272815     A.U. after   12 cycles
 SCF Done:  E(UM062X) =  -79.3614889828     A.U. after   13 cycles
 SCF Done:  E(UM062X) =  -79.3640749412     A.U. after   12 cycles
 SCF Done:  E(UM062X) =  -79.3641525876     A.U. after   11 cycles
 SCF Done:  E(UM062X) =  -79.3673695989     A.U. after   12 cycles
 SCF Done:  E(UM062X) =  -79.3686741218     A.U. after   12 cycles
 SCF Done:  E(UM062X) =  -79.3699874259     A.U. after   12 cycles
 SCF Done:  E(UM062X) =  -79.3709126721     A.U. after   12 cycles
 SCF Done:  E(UM062X) =  -79.3712495763     A.U. after   11 cycles
 SCF Done:  E(UM062X) =  -79.3714075889     A.U. after   11 cycles
 SCF Done:  E(UM062X) =  -79.3714542381     A.U. after   11 cycles
 SCF Done:  E(UM062X) =  -79.3714689411     A.U. after   11 cycles
 SCF Done:  E(UM062X) =  -79.3714754530     A.U. after   10 cycles
 SCF Done:  E(UM062X) =  -79.3714767964     A.U. after    9 cycles
 Optimization completed.
    -- Stationary point found.

                          Input orientation:
 ---------------------------------------------------------------------
 Center     Atomic      Atomic             Coordinates (Angstroms)
 Number     Number       Type             X           Y           Z
 ---------------------------------------------------------------------
      1          6           0       -0.827470    0.000000    0.000000
      2          6           0        0.827470    0.000000    0.000000
      3          1           0        1.257964   -0.922270    0.375335
      4          1           0       -1.258596   -0.922868   -0.373054
      5          1           0        1.259500    0.921959    0.374272
      6          1           0        0.672094   -0.000449   -1.116626
      7          1           0       -1.259180    0.921462   -0.375876
      8          1           0       -0.670758    0.001754    1.116547
 ---------------------------------------------------------------------

 Alpha  occ. eigenvalues --  -10.85753 -10.85728  -1.16451  -0.99528  -0.82523
 Alpha  occ. eigenvalues --   -0.80172  -0.75098  -0.71893  -0.64330
 Alpha virt. eigenvalues --   -0.17271  -0.14051  -0.11932  -0.11576  -0.10130
 Alpha virt. eigenvalues --   -0.07617  -0.07593  -0.06467  -0.05720  -0.01700
 Alpha virt. eigenvalues --   -0.01248  -0.00508   0.02280   0.03590   0.03707

  Beta  occ. eigenvalues --  -10.85507 -10.85488  -1.13464  -0.96467  -0.79323
  Beta  occ. eigenvalues --   -0.78215  -0.73587  -0.71304
  Beta virt. eigenvalues --   -0.41994  -0.16902  -0.13560  -0.11441  -0.11425
  Beta virt. eigenvalues --   -0.09802  -0.07727  -0.06543  -0.05513  -0.04687
  Beta virt. eigenvalues --   -0.01265  -0.00829   0.00053   0.02867   0.04252

 Mulliken charges and spin densities:
               1          2
     1  C   -0.344930   0.429273
     2  C   -0.345499   0.428465
     3  H    0.275784  -0.020255
     4  H    0.275836  -0.020288
     5  H    0.275806  -0.020241
     6  H    0.293582   0.111648
     7  H    0.275812  -0.020285
     8  H    0.293608   0.111684
 Sum of Mulliken charges =   1.00000   1.00000

 Dipole moment (field-independent basis, Debye):
    X=             -0.0004    Y=              0.0003    Z=              0.0007  Tot=              0.0009
 Quadrupole moment (field-independent basis, Debye-Ang):
   XX=             -7.9085   YY=            -10.8382   ZZ=            -10.2146
   XY=              0.0010   XZ=             -0.0164   YZ=              0.0004

 Normal termination of Gaussian 16 at Sat Nov 16 16:07:08 2024.
