 Gaussian 16, Revision A.03,
 Gaussian 16:  ES64L-G16RevA.03 25-Dec-2016

 --------------------------------------------
 #p opt UM062X/6-311+G** nosymm int=superfine
 --------------------------------------------

 -------------------
 Title Card Required
 -------------------
 Symbolic Z-matrix:
 Charge =  1 Multiplicity = 2

 SCF Done:  E(UM062X) =  -92.5741544095     A.U. after   29 cycles
 SCF Done:  E(UM062X) =  -92.5744775129     A.U. after   17 cycles
 Optimization completed.
    -- Stationary point found.

                          Input orientation:
 ---------------------------------------------------------------------
 Center     Atomic      Atomic             Coordinates (Angstroms)
 Number     Number       Type             X           Y           Z
 ---------------------------------------------------------------------
      1          6           0       -1.926540    0.000000    0.000000
      2          7           0        1.926540    0.000000    0.000000
      3          1           0       -3.043623   -0.000000    0.000000
 ---------------------------------------------------------------------

 Alpha  occ. eigenvalues --  -15.20978 -10.97954  -1.16481  -0.99036  -0.71550
 Alpha  occ. eigenvalues --   -0.68474  -0.65568
 Alpha virt. eigenvalues --   -0.41883  -0.34345  -0.32858  -0.13739  -0.09874
 Alpha virt. eigenvalues --   -0.07861  -0.07132  -0.04208  -0.02208  -0.01844
 Alpha virt. eigenvalues --   -0.01666   0.06890   0.25554   0.35103   0.35339

  Beta  occ. eigenvalues --  -15.18394 -10.98327  -1.04745  -1.01196  -0.66775
  Beta  occ. eigenvalues --   -0.50380
  Beta virt. eigenvalues --   -0.42952  -0.38461  -0.36205  -0.33744  -0.13523
  Beta virt. eigenvalues --   -0.10247  -0.08392  -0.07994  -0.04737  -0.02610
  Beta virt. eigenvalues --   -0.02151  -0.01671   0.05147   0.26174   0.34693

 Mulliken charges and spin densities:
               1          2
     1  C    0.305006  -0.464003
     2  N    0.449425   1.448957
     3  H    0.245568   0.015046
 Sum of Mulliken charges =   1.00000   1.00000

 Dipole moment (field-independent basis, Debye):
    X=             -3.1364    Y=             -0.0000    Z=              0.0000  Tot=              3.1364
 Quadrupole moment (field-independent basis, Debye-Ang):
   XX=             17.7753   YY=             -9.4859   ZZ=            -11.1878
   XY=              0.0000   XZ=             -0.0000   YZ=              0.3177

 Normal termination of Gaussian 16 at Mon Apr 21 18:37:51 2025.
