 Gaussian 16, Revision A.03,
 Gaussian 16:  ES64L-G16RevA.03 25-Dec-2016

 --------------------------------------------
 #p opt UM062X/6-311+G** nosymm int=superfine
 --------------------------------------------

 -------------------
 Title Card Required
 -------------------
 Symbolic Z-matrix:
 Charge =  0 Multiplicity = 1

 SCF Done:  E(UM062X) =  -438.520581391     A.U. after   12 cycles
 SCF Done:  E(UM062X) =  -438.533160985     A.U. after   11 cycles
 SCF Done:  E(UM062X) =  -438.538124417     A.U. after   11 cycles
 SCF Done:  E(UM062X) =  -438.538171553     A.U. after    9 cycles
 SCF Done:  E(UM062X) =  -438.538188951     A.U. after    9 cycles
 SCF Done:  E(UM062X) =  -438.538198695     A.U. after   11 cycles
 SCF Done:  E(UM062X) =  -438.538200461     A.U. after    8 cycles
 SCF Done:  E(UM062X) =  -438.538201065     A.U. after   11 cycles
 SCF Done:  E(UM062X) =  -438.538201306     A.U. after    8 cycles
 Optimization completed.
    -- Stationary point found.

                          Input orientation:
 ---------------------------------------------------------------------
 Center     Atomic      Atomic             Coordinates (Angstroms)
 Number     Number       Type             X           Y           Z
 ---------------------------------------------------------------------
      1          6           0       -1.635220    0.000000    0.000000
      2         16           0        1.635220    0.000000    0.000000
      3          1           0        1.595245   -1.343840   -0.001248
      4          1           0       -1.677681    1.079991    0.002602
      5          1           0       -1.710770   -0.533687   -0.936966
      6          1           0       -1.710894   -0.538191    0.934376
 ---------------------------------------------------------------------

 Alpha  occ. eigenvalues --  -89.88407 -10.64105  -8.24657  -6.16713  -6.16631
 Alpha  occ. eigenvalues --   -6.16089  -0.82386  -0.76032  -0.54301  -0.54206
 Alpha  occ. eigenvalues --   -0.42577  -0.28980  -0.28507
 Alpha virt. eigenvalues --   -0.13473   0.01433   0.04028   0.04652   0.05585
 Alpha virt. eigenvalues --    0.07563   0.08203   0.08480   0.10986   0.13568
 Alpha virt. eigenvalues --    0.16311   0.16804   0.21932   0.33382   0.36505

  Beta  occ. eigenvalues --  -89.88407 -10.64105  -8.24657  -6.16713  -6.16631
  Beta  occ. eigenvalues --   -6.16089  -0.82386  -0.76032  -0.54301  -0.54206
  Beta  occ. eigenvalues --   -0.42577  -0.28980  -0.28507
  Beta virt. eigenvalues --   -0.13473   0.01433   0.04028   0.04652   0.05585
  Beta virt. eigenvalues --    0.07563   0.08203   0.08480   0.10986   0.13568
  Beta virt. eigenvalues --    0.16311   0.16804   0.21932   0.33382   0.36505

 Mulliken charges and spin densities:
               1          2
     1  C   -0.422936  -0.000001
     2  S   -0.259151   0.000001
     3  H    0.054285  -0.000000
     4  H    0.210700   0.000000
     5  H    0.208565   0.000000
     6  H    0.208538   0.000000
 Sum of Mulliken charges =  -0.00000   0.00000

 Dipole moment (field-independent basis, Debye):
    X=             -4.0134    Y=             -0.9465    Z=             -0.0009  Tot=              4.1235
 Quadrupole moment (field-independent basis, Debye-Ang):
   XX=            -20.6820   YY=            -19.5201   ZZ=            -23.5688
   XY=             -1.6878   XZ=             -0.0016   YZ=              0.0038

 Normal termination of Gaussian 16 at Mon Apr 21 19:36:31 2025.
