 Gaussian 16, Revision A.03,
 Gaussian 16:  ES64L-G16RevA.03 25-Dec-2016

 --------------------------------------------
 #p opt UM062X/6-311+G** nosymm int=superfine
 --------------------------------------------

 -------------------
 Title Card Required
 -------------------
 Symbolic Z-matrix:
 Charge =  0 Multiplicity = 1

 SCF Done:  E(UM062X) =  -77.0571448779     A.U. after    9 cycles
 SCF Done:  E(UM062X) =  -77.1002831492     A.U. after    9 cycles
 SCF Done:  E(UM062X) =  -77.1506232099     A.U. after   10 cycles
 SCF Done:  E(UM062X) =  -77.1506646335     A.U. after    8 cycles
 Optimization completed.
    -- Stationary point found.

                          Input orientation:
 ---------------------------------------------------------------------
 Center     Atomic      Atomic             Coordinates (Angstroms)
 Number     Number       Type             X           Y           Z
 ---------------------------------------------------------------------
      1          6           0       -0.796026    0.000000    0.000000
      2          6           0        0.796026    0.000000    0.000000
      3          1           0       -1.869277   -0.000000   -0.000000
      4          1           0        1.869289   -0.000000    0.000000
 ---------------------------------------------------------------------

 Alpha  occ. eigenvalues --  -10.64214 -10.64174  -0.78735  -0.68914  -0.54253
 Alpha  occ. eigenvalues --   -0.31058  -0.31058
 Alpha virt. eigenvalues --   -0.02820  -0.02820   0.01199   0.02350   0.08237
 Alpha virt. eigenvalues --    0.08287   0.08287   0.09460   0.11379   0.11379
 Alpha virt. eigenvalues --    0.17882   0.22958   0.29402   0.46485   0.58725

  Beta  occ. eigenvalues --  -10.64214 -10.64174  -0.78735  -0.68914  -0.54253
  Beta  occ. eigenvalues --   -0.31058  -0.31058
  Beta virt. eigenvalues --   -0.02820  -0.02820   0.01199   0.02350   0.08237
  Beta virt. eigenvalues --    0.08287   0.08287   0.09460   0.11379   0.11379
  Beta virt. eigenvalues --    0.17882   0.22958   0.29402   0.46485   0.58725

 Mulliken charges and spin densities:
               1          2
     1  C   -0.235303   0.000000
     2  C   -0.235303  -0.000000
     3  H    0.235301  -0.000000
     4  H    0.235305   0.000000
 Sum of Mulliken charges =  -0.00000  -0.00000

 Dipole moment (field-independent basis, Debye):
    X=              0.0000    Y=             -0.0000    Z=             -0.0000  Tot=              0.0000
 Quadrupole moment (field-independent basis, Debye-Ang):
   XX=             -5.4053   YY=            -15.4362   ZZ=            -15.4362
   XY=              0.0000   XZ=              0.0000   YZ=              0.0000

 Normal termination of Gaussian 16 at Tue Dec  3 20:11:30 2024.
