 Gaussian 16, Revision A.03,
 Gaussian 16:  ES64L-G16RevA.03 25-Dec-2016

 --------------------------------------------
 #p opt UM062X/6-311+G** nosymm int=superfine
 --------------------------------------------

 -------------------
 Title Card Required
 -------------------
 Symbolic Z-matrix:
 Charge =  0 Multiplicity = 1

 SCF Done:  E(UM062X) =  -111.604638526     A.U. after   17 cycles
 SCF Done:  E(UM062X) =  -111.607396197     A.U. after   16 cycles
 SCF Done:  E(UM062X) =  -111.608502643     A.U. after   15 cycles
 SCF Done:  E(UM062X) =  -111.609451070     A.U. after   15 cycles
 SCF Done:  E(UM062X) =  -111.610461009     A.U. after   16 cycles
 SCF Done:  E(UM062X) =  -111.611474875     A.U. after   16 cycles
 SCF Done:  E(UM062X) =  -111.612403353     A.U. after   15 cycles
 SCF Done:  E(UM062X) =  -111.612860951     A.U. after   31 cycles
 SCF Done:  E(UM062X) =  -111.613040354     A.U. after  105 cycles
 SCF Done:  E(UM062X) =  -111.613241632     A.U. after   18 cycles
 SCF Done:  E(UM062X) =  -111.613418081     A.U. after   31 cycles
 SCF Done:  E(UM062X) =  -111.613514643     A.U. after   15 cycles
 SCF Done:  E(UM062X) =  -111.613533474     A.U. after   14 cycles
 SCF Done:  E(UM062X) =  -111.613543951     A.U. after   11 cycles
 SCF Done:  E(UM062X) =  -111.613567141     A.U. after   13 cycles
 SCF Done:  E(UM062X) =  -111.613591539     A.U. after   15 cycles
 SCF Done:  E(UM062X) =  -111.613581477     A.U. after   17 cycles
 SCF Done:  E(UM062X) =  -111.613616848     A.U. after   14 cycles
 SCF Done:  E(UM062X) =  -111.613619490     A.U. after   12 cycles
 Optimization completed.
    -- Stationary point found.

                          Input orientation:
 ---------------------------------------------------------------------
 Center     Atomic      Atomic             Coordinates (Angstroms)
 Number     Number       Type             X           Y           Z
 ---------------------------------------------------------------------
      1          7           0       -2.186540    0.000000    0.000000
      2          7           0        2.186540    0.000000    0.000000
      3          1           0       -2.063460   -0.809296   -0.621283
      4          1           0        2.064160    0.399704   -0.938809
      5          1           0       -2.062763   -0.401286    0.937959
      6          1           0        2.063280    0.810583    0.619574
 ---------------------------------------------------------------------

 Alpha  occ. eigenvalues --  -14.80388 -14.80387  -0.95158  -0.95026  -0.55347
 Alpha  occ. eigenvalues --   -0.55302  -0.40680  -0.40603  -0.27413
 Alpha virt. eigenvalues --   -0.19732   0.03875   0.05803   0.08983   0.11683
 Alpha virt. eigenvalues --    0.11926   0.12788   0.14995   0.16660   0.17419
 Alpha virt. eigenvalues --    0.18287   0.21587   0.29893   0.50785   0.51986

  Beta  occ. eigenvalues --  -14.80388 -14.80387  -0.95158  -0.95026  -0.55347
  Beta  occ. eigenvalues --   -0.55302  -0.40680  -0.40603  -0.27413
  Beta virt. eigenvalues --   -0.19732   0.03875   0.05803   0.08983   0.11683
  Beta virt. eigenvalues --    0.11926   0.12788   0.14995   0.16660   0.17419
  Beta virt. eigenvalues --    0.18287   0.21587   0.29893   0.50785   0.51986

 Mulliken charges and spin densities:
               1          2
     1  N   -0.472408  -0.000000
     2  N   -0.472479   0.000000
     3  H    0.236220   0.000000
     4  H    0.236206  -0.000000
     5  H    0.236238   0.000000
     6  H    0.236223  -0.000000
 Sum of Mulliken charges =  -0.00000   0.00000

 Dipole moment (field-independent basis, Debye):
    X=              0.0015    Y=             -0.0007    Z=             -0.0041  Tot=              0.0044
 Quadrupole moment (field-independent basis, Debye-Ang):
   XX=            -17.5938   YY=            -14.3832   ZZ=            -11.5354
   XY=              8.9777   XZ=             -2.3585   YZ=              0.8034

 Normal termination of Gaussian 16 at Thu May 15 15:30:36 2025.
