 Gaussian 16, Revision A.03,
 Gaussian 16:  ES64L-G16RevA.03 25-Dec-2016

 --------------------------------------------
 #p opt UM062X/6-311+G** nosymm int=superfine
 --------------------------------------------

 -------------------
 Title Card Required
 -------------------
 Symbolic Z-matrix:
 Charge =  0 Multiplicity = 1

 SCF Done:  E(UM062X) =  -685.013024268     A.U. after   11 cycles
 SCF Done:  E(UM062X) =  -685.014892615     A.U. after   10 cycles
 SCF Done:  E(UM062X) =  -685.015399936     A.U. after   10 cycles
 SCF Done:  E(UM062X) =  -685.015426539     A.U. after    9 cycles
 SCF Done:  E(UM062X) =  -685.015435824     A.U. after    9 cycles
 SCF Done:  E(UM062X) =  -685.015443194     A.U. after    9 cycles
 SCF Done:  E(UM062X) =  -685.015455386     A.U. after   10 cycles
 SCF Done:  E(UM062X) =  -685.015479602     A.U. after   10 cycles
 SCF Done:  E(UM062X) =  -684.997982985     A.U. after   12 cycles
 SCF Done:  E(UM062X) =  -685.015570600     A.U. after   10 cycles
 SCF Done:  E(UM062X) =  -685.015671901     A.U. after   12 cycles
 SCF Done:  E(UM062X) =  -685.015686931     A.U. after    9 cycles
 SCF Done:  E(UM062X) =  -685.015696104     A.U. after   11 cycles
 SCF Done:  E(UM062X) =  -685.015701276     A.U. after    9 cycles
 SCF Done:  E(UM062X) =  -685.015701577     A.U. after    9 cycles
 SCF Done:  E(UM062X) =  -685.015702044     A.U. after    9 cycles
 SCF Done:  E(UM062X) =  -685.015705889     A.U. after    8 cycles
 SCF Done:  E(UM062X) =  -685.015705923     A.U. after    7 cycles
 SCF Done:  E(UM062X) =  -685.015705930     A.U. after    7 cycles
 Optimization completed.
    -- Stationary point found.

                          Input orientation:
 ---------------------------------------------------------------------
 Center     Atomic      Atomic             Coordinates (Angstroms)
 Number     Number       Type             X           Y           Z
 ---------------------------------------------------------------------
      1         15           0       -1.442217    0.000000    0.000000
      2         15           0        1.442217    0.000000    0.000000
      3          1           0        1.443420   -0.944881    1.056865
      4          1           0       -1.443236    1.021149    0.983488
      5          1           0        1.443274   -1.021128   -0.983508
      6          1           0       -1.443389    0.944858   -1.056886
 ---------------------------------------------------------------------

 Alpha  occ. eigenvalues --  -78.04155 -78.04155  -6.86523  -6.86522  -4.98066
 Alpha  occ. eigenvalues --   -4.98065  -4.97989  -4.97989  -4.97795  -4.97794
 Alpha  occ. eigenvalues --   -0.72532  -0.68993  -0.45571  -0.43790  -0.36629
 Alpha  occ. eigenvalues --   -0.35835  -0.29219
 Alpha virt. eigenvalues --   -0.06985   0.01416   0.03299   0.03369   0.04193
 Alpha virt. eigenvalues --    0.04654   0.05225   0.06248   0.06427   0.06844
 Alpha virt. eigenvalues --    0.09257   0.16600   0.18812   0.28486   0.28860

  Beta  occ. eigenvalues --  -78.04155 -78.04155  -6.86523  -6.86522  -4.98066
  Beta  occ. eigenvalues --   -4.98065  -4.97989  -4.97989  -4.97795  -4.97794
  Beta  occ. eigenvalues --   -0.72532  -0.68993  -0.45571  -0.43790  -0.36629
  Beta  occ. eigenvalues --   -0.35835  -0.29219
  Beta virt. eigenvalues --   -0.06985   0.01416   0.03299   0.03369   0.04193
  Beta virt. eigenvalues --    0.04654   0.05225   0.06248   0.06427   0.06844
  Beta virt. eigenvalues --    0.09257   0.16600   0.18812   0.28486   0.28860

 Mulliken charges and spin densities:
               1          2
     1  P   -0.045579   0.000000
     2  P   -0.045587  -0.000000
     3  H    0.022793   0.000000
     4  H    0.022790  -0.000000
     5  H    0.022790   0.000000
     6  H    0.022793  -0.000000
 Sum of Mulliken charges =   0.00000   0.00000

 Dipole moment (field-independent basis, Debye):
    X=             -0.0000    Y=              0.0000    Z=             -0.0000  Tot=              0.0000
 Quadrupole moment (field-independent basis, Debye-Ang):
   XX=            -30.3607   YY=            -30.9296   ZZ=            -28.1137
   XY=             -3.5636   XZ=              0.1338   YZ=              0.1054

 Normal termination of Gaussian 16 at Mon Apr 21 20:49:31 2025.
