 Gaussian 16, Revision A.03,
 Gaussian 16:  ES64L-G16RevA.03 25-Dec-2016

 --------------------------------------------
 #p opt UM062X/6-311+G** nosymm int=superfine
 --------------------------------------------

 -------------------
 Title Card Required
 -------------------
 Symbolic Z-matrix:
 Charge =  1 Multiplicity = 2

 SCF Done:  E(UM062X) =  -80.1606425046     A.U. after   18 cycles
 SCF Done:  E(UM062X) =  -80.1614537162     A.U. after   10 cycles
 SCF Done:  E(UM062X) =  -80.1614562579     A.U. after    8 cycles
 Optimization completed.
    -- Stationary point found.

                          Input orientation:
 ---------------------------------------------------------------------
 Center     Atomic      Atomic             Coordinates (Angstroms)
 Number     Number       Type             X           Y           Z
 ---------------------------------------------------------------------
      1          5           0       -1.627734    0.000000    0.000000
      2          7           0        1.627734    0.000000    0.000000
      3          1           0       -2.832263   -0.000286   -0.000000
      4          1           0        2.663370   -0.000031    0.000000
 ---------------------------------------------------------------------

 Alpha  occ. eigenvalues --  -14.97379  -7.53002  -1.10284  -0.85636  -0.64393
 Alpha  occ. eigenvalues --   -0.56812  -0.56812
 Alpha virt. eigenvalues --   -0.42446  -0.33933  -0.33933  -0.14896  -0.11160
 Alpha virt. eigenvalues --   -0.09832  -0.09832  -0.06627  -0.02361   0.00514
 Alpha virt. eigenvalues --    0.00514   0.04456   0.07966   0.13353   0.13353

  Beta  occ. eigenvalues --  -14.94940  -7.54248  -0.97507  -0.89211  -0.67781
  Beta  occ. eigenvalues --   -0.58544
  Beta virt. eigenvalues --   -0.35499  -0.35499  -0.21440  -0.21440  -0.14393
  Beta virt. eigenvalues --   -0.10704  -0.09480  -0.09480  -0.07168  -0.02017
  Beta virt. eigenvalues --    0.02362   0.02362   0.05622   0.08780   0.16351

 Mulliken charges and spin densities:
               1          2
     1  B    0.736928  -0.833657
     2  N   -0.245076   2.047176
     3  H    0.221893  -0.142887
     4  H    0.286256  -0.070632
 Sum of Mulliken charges =   1.00000   1.00000

 Dipole moment (field-independent basis, Debye):
    X=             -6.0156    Y=             -0.0003    Z=             -0.0000  Tot=              6.0156
 Quadrupole moment (field-independent basis, Debye-Ang):
   XX=             13.3107   YY=            -10.2795   ZZ=            -10.2795
   XY=              0.0003   XZ=              0.0000   YZ=              0.0000

 Normal termination of Gaussian 16 at Mon Apr 21 17:58:59 2025.
