 Gaussian 16, Revision A.03,
 Gaussian 16:  ES64L-G16RevA.03 25-Dec-2016

 ----------------------------------------------------------------------
 #p opt UM062X/6-311+G** nosymm int=superfine SCF=(MaxCycle=200,NoVarAc
 c,noincfock) guess=read
 ----------------------------------------------------------------------

 -------------------
 Title Card Required
 -------------------
 Symbolic Z-matrix:
 Charge =  0 Multiplicity = 1

 SCF Done:  E(UM062X) =  -115.536125980     A.U. after   34 cycles
 SCF Done:  E(UM062X) =  -115.543067993     A.U. after   11 cycles
 SCF Done:  E(UM062X) =  -115.547266735     A.U. after   13 cycles
 SCF Done:  E(UM062X) =  -115.547679512     A.U. after   12 cycles
 SCF Done:  E(UM062X) =  -115.547745297     A.U. after   12 cycles
 SCF Done:  E(UM062X) =  -115.547750184     A.U. after    9 cycles
 SCF Done:  E(UM062X) =  -115.547779144     A.U. after   11 cycles
 SCF Done:  E(UM062X) =  -115.547827390     A.U. after   11 cycles
 SCF Done:  E(UM062X) =  -115.547906352     A.U. after   12 cycles
 SCF Done:  E(UM062X) =  -115.547997235     A.U. after   13 cycles
 SCF Done:  E(UM062X) =  -115.548493376     A.U. after   10 cycles
 SCF Done:  E(UM062X) =  -115.548498450     A.U. after   10 cycles
 SCF Done:  E(UM062X) =  -115.548515149     A.U. after   11 cycles
 SCF Done:  E(UM062X) =  -115.548600274     A.U. after   14 cycles
 SCF Done:  E(UM062X) =  -115.548684707     A.U. after   11 cycles
 SCF Done:  E(UM062X) =  -115.548790469     A.U. after   11 cycles
 SCF Done:  E(UM062X) =  -115.548817312     A.U. after   12 cycles
 SCF Done:  E(UM062X) =  -115.548817564     A.U. after    9 cycles
 SCF Done:  E(UM062X) =  -115.548822482     A.U. after   10 cycles
 SCF Done:  E(UM062X) =  -115.548824431     A.U. after   11 cycles
 Optimization completed.
    -- Stationary point found.

                          Input orientation:
 ---------------------------------------------------------------------
 Center     Atomic      Atomic             Coordinates (Angstroms)
 Number     Number       Type             X           Y           Z
 ---------------------------------------------------------------------
      1          6           0       -2.207203    0.000000    0.000000
      2          8           0        2.207203    0.000000    0.000000
      3          1           0        1.233590   -0.001841   -0.000020
      4          1           0       -2.244047   -0.538970    0.934325
      5          1           0       -2.239025    1.078816   -0.000115
      6          1           0       -2.242871   -0.539140   -0.934274
 ---------------------------------------------------------------------

 Alpha  occ. eigenvalues --  -19.67513 -10.55873  -1.06083  -0.79160  -0.53109
 Alpha  occ. eigenvalues --   -0.50383  -0.50381  -0.40147  -0.30185
 Alpha virt. eigenvalues --   -0.10392   0.02041   0.05211   0.05229   0.06716
 Alpha virt. eigenvalues --    0.13461   0.17891   0.18042   0.18050   0.18945
 Alpha virt. eigenvalues --    0.19045   0.20096   0.24366   0.42992   0.43010

  Beta  occ. eigenvalues --  -19.69112 -10.55190  -1.14370  -0.74371  -0.56310
  Beta  occ. eigenvalues --   -0.50234  -0.49097  -0.49094  -0.43807
  Beta virt. eigenvalues --   -0.07720  -0.00247   0.04507   0.04539   0.08440
  Beta virt. eigenvalues --    0.13244   0.17061   0.17368   0.17792   0.18890
  Beta virt. eigenvalues --    0.18987   0.19694   0.25032   0.42145   0.42160

 Mulliken charges and spin densities:
               1          2
     1  C   -0.511779   1.143317
     2  O   -0.259379  -1.010514
     3  H    0.261362   0.013153
     4  H    0.170081  -0.048650
     5  H    0.169645  -0.048654
     6  H    0.170071  -0.048653
 Sum of Mulliken charges =  -0.00000  -0.00000

 Dipole moment (field-independent basis, Debye):
    X=             -2.0742    Y=             -0.0036    Z=             -0.0001  Tot=              2.0742
 Quadrupole moment (field-independent basis, Debye-Ang):
   XX=            -21.0070   YY=            -12.7617   ZZ=            -14.1045
   XY=             -0.0002   XZ=             -0.0011   YZ=             -0.0021

 Normal termination of Gaussian 16 at Mon Apr 21 23:19:40 2025.
