 Gaussian 16, Revision A.03,
 Gaussian 16:  ES64L-G16RevA.03 25-Dec-2016

 --------------------------------------------
 #p opt UM062X/6-311+G** nosymm int=superfine
 --------------------------------------------

 -------------------
 Title Card Required
 -------------------
 Symbolic Z-matrix:
 Charge =  1 Multiplicity = 2

 SCF Done:  E(UM062X) =  -1615.57490462     A.U. after   26 cycles
 SCF Done:  E(UM062X) =  -1615.57524547     A.U. after   23 cycles
 SCF Done:  E(UM062X) =  -1615.57451501     A.U. after   27 cycles
 SCF Done:  E(UM062X) =  -1615.56902909     A.U. after   28 cycles
 SCF Done:  E(UM062X) =  -1615.56266849     A.U. after   28 cycles
 SCF Done:  E(UM062X) =  -1615.57524465     A.U. after   19 cycles
 SCF Done:  E(UM062X) =  -1615.57524385     A.U. after    6 cycles
 SCF Done:  E(UM062X) =  -1615.57562272     A.U. after   26 cycles
 SCF Done:  E(UM062X) =  -1615.57576803     A.U. after   25 cycles
 SCF Done:  E(UM062X) =  -1615.57584876     A.U. after   25 cycles
 SCF Done:  E(UM062X) =  -1615.57585831     A.U. after   19 cycles
 SCF Done:  E(UM062X) =  -1615.57586025     A.U. after   18 cycles
 SCF Done:  E(UM062X) =  -1615.57586109     A.U. after   18 cycles
 SCF Done:  E(UM062X) =  -1615.57586171     A.U. after   17 cycles
 SCF Done:  E(UM062X) =  -1615.57586187     A.U. after   16 cycles
 SCF Done:  E(UM062X) =  -1615.57586190     A.U. after   15 cycles
 Optimization completed.
    -- Stationary point found.

                          Input orientation:
 ---------------------------------------------------------------------
 Center     Atomic      Atomic             Coordinates (Angstroms)
 Number     Number       Type             X           Y           Z
 ---------------------------------------------------------------------
      1          6           0       -1.654923   -0.000000   -0.000000
      2          6           0        1.654923    0.000000    0.000000
      3          6           0       -0.000014   -2.051672   -0.002779
      4          6           0       -0.000008   -3.453701   -0.004689
      5          6           0       -1.132823   -4.288118    0.189759
      6          6           0       -1.325952   -1.465188    0.160838
      7          6           0        0.664731   -5.681021   -0.125337
      8          1           0        1.297876   -6.548984   -0.241588
      9          6           0       -1.669283    0.762096    1.222292
     10          6           0       -0.664746   -5.681346    0.109791
     11          1           0       -1.297891   -6.549626    0.223640
     12          6           0        1.132805   -4.287577   -0.201463
     13          6           0        1.325910   -1.464730   -0.164848
     14          6           0        1.792613    2.190159   -1.341283
     15          6           0       -1.766480    0.412440   -1.373315
     16          6           0       -1.840738    2.764372    2.629211
     17          1           0       -1.951384    3.840398    2.697603
     18          6           0       -2.348940   -3.704043    0.407238
     19          1           0       -3.250398   -4.281895    0.574500
     20          6           0       -1.758691    1.760857   -1.864916
     21          6           0        2.413453   -2.287610   -0.384105
     22          1           0        3.383963   -1.815622   -0.500939
     23          6           0        1.766562    0.408666    1.374448
     24          6           0        1.758754    1.755724    1.869754
     25          6           0        2.348901   -3.702899   -0.417440
     26          1           0        3.250349   -4.280284   -0.586356
     27          6           0       -1.792549    2.186471    1.347306
     28          6           0       -1.518763    0.037539    2.442181
     29          1           0       -1.378860   -1.031862    2.404846
     30          6           0        1.834310   -0.624548    2.362960
     31          1           0        1.869203   -1.656120    2.047551
     32          6           0       -1.744504    2.017238    3.784664
     33          1           0       -1.794508    2.498525    4.753812
     34          6           0       -2.413504   -2.288668    0.377762
     35          1           0       -3.384027   -1.817009    0.495810
     36          6           0       -1.777620    1.987155   -3.255852
     37          1           0       -1.753603    3.013667   -3.602788
     38          6           0        1.669273    0.765454   -1.220183
     39          6           0       -1.799248    3.135580    0.266092
     40          1           0       -1.827140    4.170407    0.593194
     41          6           0       -1.842656    0.963895   -4.173545
     42          1           0       -1.873135    1.180922   -5.234416
     43          6           0       -1.752347    2.957770   -1.069441
     44          1           0       -1.737887    3.871428   -1.655996
     45          6           0        1.777766    1.978191    3.261304
     46          1           0        1.753719    3.003742    3.611068
     47          6           0       -1.561753    0.636741    3.680706
     48          1           0       -1.451761    0.029125    4.570739
     49          6           0       -1.834126   -0.618052   -2.364677
     50          1           0       -1.868990   -1.650489   -2.052109
     51          6           0        1.842895    0.952411    4.176173
     52          1           0        1.873429    1.166522    5.237636
     53          6           0        1.840893    2.771565   -2.621594
     54          1           0        1.951611    3.847766   -2.687038
     55          6           0        1.888428   -0.367110    3.710791
     56          1           0        1.961888   -1.192151    4.408803
     57          6           0        1.744650    2.027602   -3.779094
     58          1           0        1.794740    2.511540   -4.746916
     59          6           0        1.799232    3.136301   -0.257465
     60          1           0        1.827066    4.172020   -0.581738
     61          6           0       -1.888173   -0.356902   -3.711797
     62          1           0       -1.961561   -1.180021   -4.412082
     63          6           0        1.752276    2.954824    1.077569
     64          1           0        1.737697    3.866864    1.666635
     65          6           0        1.518711    0.044252   -2.442052
     66          1           0        1.378728   -1.025238   -2.407636
     67          6           0        1.561779    0.646839   -3.678931
     68          1           0        1.451751    0.041680   -4.570630
 ---------------------------------------------------------------------

 Alpha  occ. eigenvalues --  -10.70661 -10.70660 -10.68668 -10.68668 -10.68612
 Alpha  occ. eigenvalues --  -10.68612 -10.68256 -10.68255 -10.68255 -10.68255
 Alpha  occ. eigenvalues --  -10.67583 -10.67495 -10.67477 -10.66712 -10.66712
 Alpha  occ. eigenvalues --  -10.66608 -10.66608 -10.65924 -10.65924 -10.65870
 Alpha  occ. eigenvalues --  -10.65870 -10.65729 -10.65729 -10.65692 -10.65692
 Alpha  occ. eigenvalues --  -10.65612 -10.65612 -10.65587 -10.65587 -10.65404
 Alpha  occ. eigenvalues --  -10.65404 -10.65380 -10.65380 -10.65345 -10.65345
 Alpha  occ. eigenvalues --  -10.65210 -10.65210 -10.64837 -10.64836 -10.63821
 Alpha  occ. eigenvalues --  -10.63739 -10.63638  -1.11737  -1.10359  -1.09965
 Alpha  occ. eigenvalues --   -1.08259  -1.07818  -1.05167  -1.04982  -1.02486
 Alpha  occ. eigenvalues --   -1.02149  -1.01025  -1.00168  -0.97925  -0.97655
 Alpha  occ. eigenvalues --   -0.96688  -0.96305  -0.94842  -0.93545  -0.93461
 Alpha  occ. eigenvalues --   -0.92861  -0.91693  -0.87338  -0.87127  -0.84974
 Alpha  occ. eigenvalues --   -0.84815  -0.83007  -0.81529  -0.80699  -0.79745
 Alpha  occ. eigenvalues --   -0.79662  -0.79534  -0.77295  -0.76288  -0.76156
 Alpha  occ. eigenvalues --   -0.75890  -0.75297  -0.73269  -0.70125  -0.69603
 Alpha  occ. eigenvalues --   -0.68709  -0.68526  -0.67751  -0.67651  -0.66890
 Alpha  occ. eigenvalues --   -0.66890  -0.65732  -0.65345  -0.65226  -0.64659
 Alpha  occ. eigenvalues --   -0.63219  -0.62714  -0.62402  -0.62100  -0.60936
 Alpha  occ. eigenvalues --   -0.60921  -0.60515  -0.60185  -0.60054  -0.60012
 Alpha  occ. eigenvalues --   -0.59526  -0.58803  -0.58715  -0.58092  -0.57622
 Alpha  occ. eigenvalues --   -0.57378  -0.57175  -0.55924  -0.55656  -0.55651
 Alpha  occ. eigenvalues --   -0.54918  -0.54060  -0.52997  -0.52845  -0.52601
 Alpha  occ. eigenvalues --   -0.52418  -0.52350  -0.52039  -0.51031  -0.50953
 Alpha  occ. eigenvalues --   -0.50868  -0.50766  -0.49625  -0.49554  -0.49472
 Alpha  occ. eigenvalues --   -0.48368  -0.48347  -0.47959  -0.45628  -0.44716
 Alpha  occ. eigenvalues --   -0.43845  -0.42792  -0.40606  -0.40411  -0.39252
 Alpha  occ. eigenvalues --   -0.38133  -0.37536  -0.37005  -0.30204
 Alpha virt. eigenvalues --   -0.21436  -0.16031  -0.15509  -0.14351  -0.10722
 Alpha virt. eigenvalues --   -0.09974  -0.08929  -0.08570  -0.08337  -0.07581
 Alpha virt. eigenvalues --   -0.07544  -0.07451  -0.06640  -0.06299  -0.06182

  Beta  occ. eigenvalues --  -10.70499 -10.70499 -10.68716 -10.68716 -10.68656
  Beta  occ. eigenvalues --  -10.68656 -10.68216 -10.68215 -10.68209 -10.68209
  Beta  occ. eigenvalues --  -10.67565 -10.67515 -10.67485 -10.66709 -10.66709
  Beta  occ. eigenvalues --  -10.66601 -10.66601 -10.65883 -10.65883 -10.65834
  Beta  occ. eigenvalues --  -10.65834 -10.65697 -10.65697 -10.65653 -10.65653
  Beta  occ. eigenvalues --  -10.65631 -10.65631 -10.65606 -10.65606 -10.65420
  Beta  occ. eigenvalues --  -10.65420 -10.65377 -10.65377 -10.65364 -10.65364
  Beta  occ. eigenvalues --  -10.65197 -10.65197 -10.64836 -10.64835 -10.63817
  Beta  occ. eigenvalues --  -10.63739 -10.63638  -1.11590  -1.10190  -1.09892
  Beta  occ. eigenvalues --   -1.08154  -1.07729  -1.04998  -1.04837  -1.02376
  Beta  occ. eigenvalues --   -1.02055  -1.00845  -1.00004  -0.97823  -0.97562
  Beta  occ. eigenvalues --   -0.96580  -0.96214  -0.94798  -0.93477  -0.93367
  Beta  occ. eigenvalues --   -0.92797  -0.91610  -0.87037  -0.86770  -0.84910
  Beta  occ. eigenvalues --   -0.84755  -0.82931  -0.81433  -0.80604  -0.79663
  Beta  occ. eigenvalues --   -0.79595  -0.79464  -0.77192  -0.76147  -0.75996
  Beta  occ. eigenvalues --   -0.75729  -0.75256  -0.73152  -0.70009  -0.69459
  Beta  occ. eigenvalues --   -0.68595  -0.68410  -0.67707  -0.67608  -0.66774
  Beta  occ. eigenvalues --   -0.66772  -0.65643  -0.65193  -0.65083  -0.64565
  Beta  occ. eigenvalues --   -0.63048  -0.62663  -0.62323  -0.62032  -0.60792
  Beta  occ. eigenvalues --   -0.60702  -0.60395  -0.60052  -0.59958  -0.59862
  Beta  occ. eigenvalues --   -0.59383  -0.58708  -0.58587  -0.58019  -0.57517
  Beta  occ. eigenvalues --   -0.57131  -0.56802  -0.55688  -0.55608  -0.55605
  Beta  occ. eigenvalues --   -0.54887  -0.53767  -0.52898  -0.52762  -0.52544
  Beta  occ. eigenvalues --   -0.52315  -0.52235  -0.52017  -0.50967  -0.50846
  Beta  occ. eigenvalues --   -0.50789  -0.50337  -0.49456  -0.49409  -0.48874
  Beta  occ. eigenvalues --   -0.48302  -0.47693  -0.47688  -0.44878  -0.44214
  Beta  occ. eigenvalues --   -0.43135  -0.42441  -0.40351  -0.40305  -0.38659
  Beta  occ. eigenvalues --   -0.38049  -0.37190  -0.36969
  Beta virt. eigenvalues --   -0.20611  -0.18310  -0.15922  -0.15500  -0.14417
  Beta virt. eigenvalues --   -0.10371  -0.09562  -0.08552  -0.08551  -0.08019
  Beta virt. eigenvalues --   -0.07621  -0.07563  -0.07269  -0.06629  -0.06278

 Mulliken charges and spin densities:
               1          2
     1  C    0.044666   0.373082
     2  C    0.044523   0.373070
     3  C    0.365552   0.024758
     4  C    0.217733  -0.017931
     5  C    0.113892   0.007370
     6  C    0.007939  -0.043613
     7  C   -0.317721   0.000606
     8  H    0.176013   0.000001
     9  C    0.012855  -0.049679
    10  C   -0.317731   0.000607
    11  H    0.176013   0.000001
    12  C    0.113901   0.007368
    13  C    0.008084  -0.043614
    14  C    0.581176   0.028901
    15  C    0.354526  -0.081058
    16  C   -0.436139  -0.036705
    17  H    0.164978   0.001165
    18  C   -0.467562   0.001431
    19  H    0.175340   0.000103
    20  C    0.265506   0.109436
    21  C   -0.102096   0.023363
    22  H    0.177349  -0.000471
    23  C    0.354507  -0.081056
    24  C    0.265481   0.109433
    25  C   -0.467588   0.001430
    26  H    0.175339   0.000103
    27  C    0.581189   0.028926
    28  C   -0.048739   0.084844
    29  H    0.212067  -0.004877
    30  C   -0.248825   0.038020
    31  H    0.223723  -0.003617
    32  C   -0.397812   0.062399
    33  H    0.182432  -0.003577
    34  C   -0.102021   0.023362
    35  H    0.177347  -0.000471
    36  C   -0.027267  -0.064865
    37  H    0.159072   0.001479
    38  C    0.012793  -0.049672
    39  C   -0.348274   0.048569
    40  H    0.163447  -0.002367
    41  C   -0.205820   0.075342
    42  H    0.181087  -0.003991
    43  C   -0.366313   0.010980
    44  H    0.160580  -0.000445
    45  C   -0.027293  -0.064859
    46  H    0.159072   0.001479
    47  C    0.036823  -0.040379
    48  H    0.167452   0.000263
    49  C   -0.248862   0.038021
    50  H    0.223731  -0.003618
    51  C   -0.205859   0.075324
    52  H    0.181086  -0.003990
    53  C   -0.436115  -0.036694
    54  H    0.164980   0.001165
    55  C   -0.562456  -0.036623
    56  H    0.176477   0.001496
    57  C   -0.397865   0.062387
    58  H    0.182432  -0.003576
    59  C   -0.348188   0.048572
    60  H    0.163441  -0.002367
    61  C   -0.562577  -0.036634
    62  H    0.176478   0.001496
    63  C   -0.366285   0.010981
    64  H    0.160573  -0.000446
    65  C   -0.048601   0.084858
    66  H    0.212066  -0.004877
    67  C    0.036834  -0.040383
    68  H    0.167453   0.000263
 Sum of Mulliken charges =   1.00000   1.00000

 Dipole moment (field-independent basis, Debye):
    X=              0.0002    Y=              2.5385    Z=              0.0034  Tot=              2.5385
 Quadrupole moment (field-independent basis, Debye-Ang):
   XX=           -222.1907   YY=           -174.7675   ZZ=           -176.3329
   XY=             -0.0009   XZ=              0.8140   YZ=              0.0023

 Normal termination of Gaussian 16 at Fri Nov 15 07:27:35 2024.
