 Gaussian 16, Revision A.03,
 Gaussian 16:  ES64L-G16RevA.03 25-Dec-2016

 --------------------------------------------
 #p opt UM062X/6-311+G** nosymm int=superfine
 --------------------------------------------

 -------------------
 Title Card Required
 -------------------
 Symbolic Z-matrix:
 Charge =  1 Multiplicity = 2

 SCF Done:  E(UM062X) =  -76.5862693438     A.U. after   11 cycles
 SCF Done:  E(UM062X) =  -76.5866732823     A.U. after   41 cycles
 Optimization completed.
    -- Stationary point found.

                          Input orientation:
 ---------------------------------------------------------------------
 Center     Atomic      Atomic             Coordinates (Angstroms)
 Number     Number       Type             X           Y           Z
 ---------------------------------------------------------------------
      1          6           0       -1.482160    0.000000    0.000000
      2          6           0        1.482160    0.000000    0.000000
      3          1           0       -2.601324    0.000000   -0.000000
      4          1           0        2.601323   -0.000000   -0.000000
 ---------------------------------------------------------------------

 Alpha  occ. eigenvalues --  -10.95272 -10.95271  -0.99149  -0.98551  -0.66959
 Alpha  occ. eigenvalues --   -0.61574  -0.50323
 Alpha virt. eigenvalues --   -0.40009  -0.34771  -0.33378  -0.12958  -0.11653
 Alpha virt. eigenvalues --   -0.08085  -0.07548  -0.05852  -0.05127  -0.04729
 Alpha virt. eigenvalues --   -0.01333   0.00722   0.05977   0.23850   0.31449

  Beta  occ. eigenvalues --  -10.94879 -10.94878  -0.96736  -0.96336  -0.65665
  Beta  occ. eigenvalues --   -0.60124
  Beta virt. eigenvalues --   -0.33067  -0.31502  -0.31464  -0.29806  -0.13518
  Beta virt. eigenvalues --   -0.11577  -0.07631  -0.06914  -0.06687  -0.04431
  Beta virt. eigenvalues --   -0.03520  -0.02059   0.02451   0.07265   0.23065

 Mulliken charges and spin densities:
               1          2
     1  C    0.253281   0.516187
     2  C    0.253281   0.516187
     3  H    0.246719  -0.016187
     4  H    0.246719  -0.016187
 Sum of Mulliken charges =   1.00000   1.00000

 Dipole moment (field-independent basis, Debye):
    X=             -0.0000    Y=              0.0000    Z=             -0.0000  Tot=              0.0000
 Quadrupole moment (field-independent basis, Debye-Ang):
   XX=             12.0491   YY=            -11.3204   ZZ=             -9.7606
   XY=             -0.0000   XZ=              0.0000   YZ=             -0.6715

 Normal termination of Gaussian 16 at Tue Dec  3 11:27:52 2024.
