 Gaussian 16, Revision A.03,
 Gaussian 16:  ES64L-G16RevA.03 25-Dec-2016

 --------------------------------------------
 #p opt UM062X/6-311+G** nosymm int=superfine
 --------------------------------------------

 -------------------
 Title Card Required
 -------------------
 Symbolic Z-matrix:
 Charge =  0 Multiplicity = 1

 SCF Done:  E(UM062X) =  -80.4093308954     A.U. after   16 cycles
 SCF Done:  E(UM062X) =  -80.4126304581     A.U. after    9 cycles
 SCF Done:  E(UM062X) =  -80.4126768921     A.U. after    9 cycles
 Optimization completed.
    -- Stationary point found.

                          Input orientation:
 ---------------------------------------------------------------------
 Center     Atomic      Atomic             Coordinates (Angstroms)
 Number     Number       Type             X           Y           Z
 ---------------------------------------------------------------------
      1          5           0       -2.067066    0.000000    0.000000
      2          7           0        2.067066    0.000000    0.000000
      3          1           0       -3.299572   -0.000637    0.000000
      4          1           0        3.106071    0.000391   -0.000000
 ---------------------------------------------------------------------

 Alpha  occ. eigenvalues --  -14.82671  -7.12116  -0.89152  -0.54324  -0.45680
 Alpha  occ. eigenvalues --   -0.33327  -0.27339
 Alpha virt. eigenvalues --   -0.12186  -0.04034  -0.03996   0.02580   0.04090
 Alpha virt. eigenvalues --    0.06630   0.06722   0.09518   0.13719   0.14740
 Alpha virt. eigenvalues --    0.16559   0.19164   0.24908   0.38306   0.42477

  Beta  occ. eigenvalues --  -14.82671  -7.12116  -0.89152  -0.54324  -0.45680
  Beta  occ. eigenvalues --   -0.33327  -0.27339
  Beta virt. eigenvalues --   -0.12186  -0.04034  -0.03996   0.02580   0.04090
  Beta virt. eigenvalues --    0.06630   0.06722   0.09518   0.13719   0.14740
  Beta virt. eigenvalues --    0.16559   0.19164   0.24908   0.38306   0.42477

 Mulliken charges and spin densities:
               1          2
     1  B   -0.004970  -0.000000
     2  N   -0.195605  -0.000000
     3  H   -0.009824   0.000000
     4  H    0.210399   0.000000
 Sum of Mulliken charges =  -0.00000   0.00000

 Dipole moment (field-independent basis, Debye):
    X=              0.1921    Y=             -0.0003    Z=              0.0000  Tot=              0.1921
 Quadrupole moment (field-independent basis, Debye-Ang):
   XX=             -2.5026   YY=            -11.8480   ZZ=            -15.1241
   XY=              0.0014   XZ=             -0.0000   YZ=             -0.0000

 Normal termination of Gaussian 16 at Mon Apr 21 18:06:32 2025.
