 Gaussian 16, Revision A.03,
 Gaussian 16:  ES64L-G16RevA.03 25-Dec-2016

 --------------------------------------------
 #p opt UM062X/6-311+G** nosymm int=superfine
 --------------------------------------------

 -------------------
 Title Card Required
 -------------------
 Symbolic Z-matrix:
 Charge =  0 Multiplicity = 1

 SCF Done:  E(UM062X) =  -92.8188361872     A.U. after   14 cycles
 SCF Done:  E(UM062X) =  -92.8207907557     A.U. after   12 cycles
 SCF Done:  E(UM062X) =  -92.8208011514     A.U. after   11 cycles
 Optimization completed.
    -- Stationary point found.

                          Input orientation:
 ---------------------------------------------------------------------
 Center     Atomic      Atomic             Coordinates (Angstroms)
 Number     Number       Type             X           Y           Z
 ---------------------------------------------------------------------
      1          6           0       -1.947395    0.000000    0.000000
      2          7           0        1.947395    0.000000    0.000000
      3          1           0       -3.072667   -0.000000    0.000000
 ---------------------------------------------------------------------

 Alpha  occ. eigenvalues --  -14.81240 -10.76414  -0.80408  -0.76103  -0.45584
 Alpha  occ. eigenvalues --   -0.25922  -0.25922
 Alpha virt. eigenvalues --   -0.18447  -0.18447  -0.07714  -0.00141   0.06104
 Alpha virt. eigenvalues --    0.06104   0.07888   0.12557   0.15662   0.17366
 Alpha virt. eigenvalues --    0.17366   0.23188   0.41677   0.51880   0.51880

  Beta  occ. eigenvalues --  -14.81240 -10.76414  -0.80408  -0.76103  -0.45584
  Beta  occ. eigenvalues --   -0.25922  -0.25922
  Beta virt. eigenvalues --   -0.18447  -0.18447  -0.07714  -0.00141   0.06104
  Beta virt. eigenvalues --    0.06104   0.07888   0.12557   0.15662   0.17366
  Beta virt. eigenvalues --    0.17366   0.23188   0.41677   0.51880   0.51880

 Mulliken charges and spin densities:
               1          2
     1  C    0.085851   0.000000
     2  N   -0.255533  -0.000000
     3  H    0.169682  -0.000000
 Sum of Mulliken charges =  -0.00000  -0.00000

 Dipole moment (field-independent basis, Debye):
    X=             -6.6145    Y=             -0.0000    Z=              0.0000  Tot=              6.6145
 Quadrupole moment (field-independent basis, Debye-Ang):
   XX=             -4.1706   YY=            -14.2078   ZZ=            -14.2078
   XY=              0.0000   XZ=             -0.0000   YZ=              0.0000

 Normal termination of Gaussian 16 at Mon Apr 21 18:37:10 2025.
