 Gaussian 16, Revision A.03,
 Gaussian 16:  ES64L-G16RevA.03 25-Dec-2016

 ---------------------------------------------------
 #p UM062X/6-311+G** force int=superfine pop=saveNBO
 ---------------------------------------------------

 -------------------
 Title Card Required
 -------------------
 Symbolic Z-matrix:
 Charge =  0 Multiplicity = 1

                         Standard orientation:
 ---------------------------------------------------------------------
 Center     Atomic      Atomic             Coordinates (Angstroms)
 Number     Number       Type             X           Y           Z
 ---------------------------------------------------------------------
      1          6           0        0.000000    0.000000   -2.355522
      2          8           0        0.000000    0.000000    1.766642
 ---------------------------------------------------------------------

 SCF Done:  E(UM062X) =  -112.628064968     A.U. after   17 cycles

 The electronic state is 1-SG.
 Alpha  occ. eigenvalues --  -19.69160 -10.82789  -0.99096  -0.72353  -0.37898
 Alpha  occ. eigenvalues --   -0.29747  -0.29747
 Alpha virt. eigenvalues --   -0.22808  -0.22808  -0.18233   0.02246   0.05841
 Alpha virt. eigenvalues --    0.05841   0.07048   0.18300   0.21141   0.21141
 Alpha virt. eigenvalues --    0.24698   0.50945   0.50945   0.51691   0.61021

  Beta  occ. eigenvalues --  -19.69160 -10.82789  -0.99096  -0.72353  -0.37898
  Beta  occ. eigenvalues --   -0.29747  -0.29747
  Beta virt. eigenvalues --   -0.22808  -0.22808  -0.18233   0.02246   0.05841
  Beta virt. eigenvalues --    0.05841   0.07048   0.18300   0.21141   0.21141
  Beta virt. eigenvalues --    0.24698   0.50945   0.50945   0.51691   0.61021

 Mulliken charges and spin densities:
               1          2
     1  C    0.286870  -0.000003
     2  O   -0.286870   0.000003
 Sum of Mulliken charges =  -0.00000   0.00000

 Dipole moment (field-independent basis, Debye):
    X=              0.0000    Y=              0.0000    Z=             -5.6508  Tot=              5.6508
 Quadrupole moment (field-independent basis, Debye-Ang):
   XX=            -12.3642   YY=            -12.3642   ZZ=             -7.7483
   XY=              0.0000   XZ=              0.0000   YZ=              0.0000

 Summary of Natural Population Analysis:

                                       Natural Population
                Natural  -----------------------------------------------
    Atom  No    Charge         Core      Valence    Rydberg      Total
 -----------------------------------------------------------------------
      C    1    0.14630      1.00000     1.85361    0.00009     2.85370
      O    2   -0.14630      1.00000     3.14553    0.00077     4.14630
 =======================================================================
   * Total *   -0.00000      2.00000     4.99914    0.00086     7.00000

 Normal termination of Gaussian 16 at Mon Apr 21 19:32:09 2025.
