 Gaussian 16, Revision A.03,
 Gaussian 16:  ES64L-G16RevA.03 25-Dec-2016

 --------------------------------------------
 #p opt UM062X/6-311+G** nosymm int=superfine
 --------------------------------------------

 -------------------
 Title Card Required
 -------------------
 Symbolic Z-matrix:
 Charge =  1 Multiplicity = 2

 SCF Done:  E(UM062X) =  -379.355002241     A.U. after  118 cycles
 SCF Done:  E(UM062X) =  -379.355445265     A.U. after   15 cycles
 SCF Done:  E(UM062X) =  -379.355446721     A.U. after   68 cycles
 Optimization completed.
    -- Stationary point found.

                          Input orientation:
 ---------------------------------------------------------------------
 Center     Atomic      Atomic             Coordinates (Angstroms)
 Number     Number       Type             X           Y           Z
 ---------------------------------------------------------------------
      1          6           0       -1.994427    0.000000    0.000000
      2         15           0        1.994427    0.000000    0.000000
      3          1           0       -3.106761   -0.000000   -0.000000
 ---------------------------------------------------------------------

 Alpha  occ. eigenvalues --  -78.39862 -10.82849  -7.21006  -5.33078  -5.33077
 Alpha  occ. eigenvalues --   -5.32725  -0.94670  -0.86198  -0.57887  -0.57870
 Alpha  occ. eigenvalues --   -0.52377
 Alpha virt. eigenvalues --   -0.41553  -0.24377  -0.21314  -0.12025  -0.09870
 Alpha virt. eigenvalues --   -0.09037  -0.08882  -0.06131  -0.03213  -0.01989
 Alpha virt. eigenvalues --   -0.01172   0.04996   0.14736   0.14788   0.16025

  Beta  occ. eigenvalues --  -78.38104 -10.84248  -7.20394  -5.31893  -5.30323
  Beta  occ. eigenvalues --   -5.30322  -0.91967  -0.83353  -0.59226  -0.50176
  Beta virt. eigenvalues --   -0.36667  -0.34147  -0.34104  -0.27441  -0.13778
  Beta virt. eigenvalues --   -0.08666  -0.06895  -0.06777  -0.05655  -0.02869
  Beta virt. eigenvalues --   -0.02786  -0.00609   0.03267   0.10948   0.10992

 Mulliken charges and spin densities:
               1          2
     1  C   -0.039523  -1.177590
     2  P    0.812489   2.179789
     3  H    0.227034  -0.002199
 Sum of Mulliken charges =   1.00000   1.00000

 Dipole moment (field-independent basis, Debye):
    X=              3.7583    Y=             -0.0000    Z=             -0.0000  Tot=              3.7583
 Quadrupole moment (field-independent basis, Debye-Ang):
   XX=             13.3007   YY=            -16.2968   ZZ=            -17.8864
   XY=             -0.0000   XZ=             -0.0000   YZ=             -0.5443

 Normal termination of Gaussian 16 at Mon Apr 21 19:29:04 2025.
