 Gaussian 16, Revision A.03,
 Gaussian 16:  ES64L-G16RevA.03 25-Dec-2016

 --------------------------------------------
 #p opt UM062X/6-311+G** nosymm int=superfine
 --------------------------------------------

 -------------------
 Title Card Required
 -------------------
 Symbolic Z-matrix:
 Charge =  1 Multiplicity = 2

 SCF Done:  E(UM062X) =  -379.357483306     A.U. after   61 cycles
 SCF Done:  E(UM062X) =  -379.357913309     A.U. after   55 cycles
 SCF Done:  E(UM062X) =  -379.357912723     A.U. after   17 cycles
 Optimization completed.
    -- Stationary point found.

                          Input orientation:
 ---------------------------------------------------------------------
 Center     Atomic      Atomic             Coordinates (Angstroms)
 Number     Number       Type             X           Y           Z
 ---------------------------------------------------------------------
      1          6           0       -1.294427    0.000000    0.000000
      2         15           0        1.294427    0.000000    0.000000
      3          1           0       -2.405983    0.000000   -0.000003
 ---------------------------------------------------------------------

 Alpha  occ. eigenvalues --  -78.39258 -10.97405  -7.20420  -5.32315  -5.31943
 Alpha  occ. eigenvalues --   -5.31202  -1.00727  -0.90270  -0.68019  -0.53733
 Alpha  occ. eigenvalues --   -0.51995
 Alpha virt. eigenvalues --   -0.39590  -0.37065  -0.34647  -0.13317  -0.10511
 Alpha virt. eigenvalues --   -0.08902  -0.08705  -0.08215  -0.05446  -0.05389
 Alpha virt. eigenvalues --   -0.00852   0.02952   0.12465   0.14560   0.14621

  Beta  occ. eigenvalues --  -78.38825 -10.97197  -7.20325  -5.31835  -5.31194
  Beta  occ. eigenvalues --   -5.30967  -0.98506  -0.87215  -0.66867  -0.50605
  Beta virt. eigenvalues --   -0.36372  -0.35886  -0.33193  -0.31867  -0.14404
  Beta virt. eigenvalues --   -0.11093  -0.08964  -0.08839  -0.08510  -0.05548
  Beta virt. eigenvalues --   -0.05519  -0.01975   0.03447   0.11824   0.11924

 Mulliken charges and spin densities:
               1          2
     1  C    0.017617   0.429183
     2  P    0.677268   0.588028
     3  H    0.305114  -0.017211
 Sum of Mulliken charges =   1.00000   1.00000

 Dipole moment (field-independent basis, Debye):
    X=             -0.1982    Y=             -0.0000    Z=             -0.0000  Tot=              0.1982
 Quadrupole moment (field-independent basis, Debye-Ang):
   XX=              0.9420   YY=            -18.0439   ZZ=            -17.8140
   XY=             -0.0000   XZ=              0.0000   YZ=             -1.6696

 Normal termination of Gaussian 16 at Mon Apr 21 19:25:34 2025.
