 Gaussian 16, Revision A.03,
 Gaussian 16:  ES64L-G16RevA.03 25-Dec-2016

 --------------------------------------------
 #p opt UM062X/6-311+G** nosymm int=superfine
 --------------------------------------------

 -------------------
 Title Card Required
 -------------------
 Symbolic Z-matrix:
 Charge =  0 Multiplicity = 1

 SCF Done:  E(UM062X) =  -83.1212425450     A.U. after   10 cycles
 SCF Done:  E(UM062X) =  -83.1370168220     A.U. after    9 cycles
 SCF Done:  E(UM062X) =  -83.1405725582     A.U. after    9 cycles
 SCF Done:  E(UM062X) =  -83.1405989141     A.U. after    7 cycles
 Optimization completed.
    -- Stationary point found.

                          Input orientation:
 ---------------------------------------------------------------------
 Center     Atomic      Atomic             Coordinates (Angstroms)
 Number     Number       Type             X           Y           Z
 ---------------------------------------------------------------------
      1          5           0       -1.977429    0.000000    0.000000
      2          7           0        1.977429    0.000000    0.000000
      3          1           0        2.341894   -0.945136    0.000003
      4          1           0       -1.988901   -0.593913    1.028659
      5          1           0        2.341793    0.472616   -0.818533
      6          1           0        2.341780    0.472615    0.818539
      7          1           0       -1.988922    1.187798    0.000013
      8          1           0       -1.988918   -0.593894   -1.028669
 ---------------------------------------------------------------------

 Alpha  occ. eigenvalues --  -14.72843  -7.04293  -0.96120  -0.57531  -0.53949
 Alpha  occ. eigenvalues --   -0.53949  -0.39949  -0.39949  -0.34204
 Alpha virt. eigenvalues --   -0.02144   0.02601   0.04771   0.04771   0.05053
 Alpha virt. eigenvalues --    0.08526   0.10696   0.10696   0.17253   0.17961
 Alpha virt. eigenvalues --    0.17961   0.19126   0.19126   0.22454   0.27297

  Beta  occ. eigenvalues --  -14.72843  -7.04293  -0.96120  -0.57531  -0.53949
  Beta  occ. eigenvalues --   -0.53949  -0.39949  -0.39949  -0.34204
  Beta virt. eigenvalues --   -0.02144   0.02601   0.04771   0.04771   0.05053
  Beta virt. eigenvalues --    0.08526   0.10696   0.10696   0.17253   0.17961
  Beta virt. eigenvalues --    0.17961   0.19126   0.19126   0.22454   0.27297

 Mulliken charges and spin densities:
               1          2
     1  B    0.020283   0.000000
     2  N   -0.730203   0.000000
     3  H    0.244984  -0.000000
     4  H   -0.008343  -0.000000
     5  H    0.244984  -0.000000
     6  H    0.244984   0.000000
     7  H   -0.008346  -0.000000
     8  H   -0.008343  -0.000000
 Sum of Mulliken charges =  -0.00000  -0.00000

 Dipole moment (field-independent basis, Debye):
    X=              1.9313    Y=              0.0001    Z=              0.0000  Tot=              1.9313
 Quadrupole moment (field-independent basis, Debye-Ang):
   XX=             -9.8724   YY=            -15.6397   ZZ=            -15.6398
   XY=              0.0001   XZ=             -0.0000   YZ=              0.0000

 Normal termination of Gaussian 16 at Mon Apr 21 17:40:02 2025.
