 Gaussian 16, Revision A.03,
 Gaussian 16:  ES64L-G16RevA.03 25-Dec-2016

 ---------------------------------------
 #p UM062X/6-311+G** force int=superfine
 ---------------------------------------

 -------------------
 Title Card Required
 -------------------
 Symbolic Z-matrix:
 Charge =  1 Multiplicity = 2

                         Standard orientation:
 ---------------------------------------------------------------------
 Center     Atomic      Atomic             Coordinates (Angstroms)
 Number     Number       Type             X           Y           Z
 ---------------------------------------------------------------------
      1          6           0       -0.000000    0.862408    0.000000
      2          6           0       -0.000000   -0.862408    0.000000
      3          1           0       -0.960210    1.366769    0.000000
      4          1           0        0.960178    1.366904    0.000000
      5          1           0        0.960210   -1.366769    0.000000
      6          1           0       -0.960178   -1.366904    0.000000
 ---------------------------------------------------------------------

 SCF Done:  E(UM062X) =  -78.1360286920     A.U. after    9 cycles

 The electronic state is 2-AU.
 Alpha  occ. eigenvalues --  -10.91384 -10.91356  -1.10924  -0.99111  -0.82043
 Alpha  occ. eigenvalues --   -0.75824  -0.73145  -0.60379
 Alpha virt. eigenvalues --   -0.33845  -0.15699  -0.14437  -0.11412  -0.08904
 Alpha virt. eigenvalues --   -0.07528  -0.07436  -0.07253  -0.04673  -0.04500
 Alpha virt. eigenvalues --   -0.01582  -0.01557   0.02786   0.09818   0.18722

  Beta  occ. eigenvalues --  -10.91157 -10.91138  -1.07507  -0.97024  -0.81282
  Beta  occ. eigenvalues --   -0.75472  -0.71946
  Beta virt. eigenvalues --   -0.38069  -0.25812  -0.16037  -0.14356  -0.11770
  Beta virt. eigenvalues --   -0.08877  -0.08111  -0.07269  -0.06316  -0.04525
  Beta virt. eigenvalues --   -0.04020  -0.01130  -0.00973   0.02241   0.10360

 Mulliken charges and spin densities:
               1          2
     1  C   -0.062080   0.539711
     2  C   -0.062080   0.539711
     3  H    0.281033  -0.019856
     4  H    0.281047  -0.019855
     5  H    0.281033  -0.019856
     6  H    0.281047  -0.019855
 Sum of Mulliken charges =   1.00000   1.00000

 Dipole moment (field-independent basis, Debye):
    X=              0.0000    Y=             -0.0000    Z=              0.0000  Tot=              0.0000
 Quadrupole moment (field-independent basis, Debye-Ang):
   XX=             -8.3314   YY=             -3.9475   ZZ=            -12.0879
   XY=              0.0004   XZ=              0.0000   YZ=              0.0000

 Normal termination of Gaussian 16 at Tue Nov 19 11:55:18 2024.
