 Gaussian 16, Revision A.03,
 Gaussian 16:  ES64L-G16RevA.03 25-Dec-2016

 --------------------------------------------
 #p opt UM062X/6-311+G** nosymm int=superfine
 --------------------------------------------

 -------------------
 Title Card Required
 -------------------
 Symbolic Z-matrix:
 Charge =  0 Multiplicity = 1

 SCF Done:  E(UM062X) =  -438.581020527     A.U. after   11 cycles
 SCF Done:  E(UM062X) =  -438.589844352     A.U. after   10 cycles
 SCF Done:  E(UM062X) =  -438.592120983     A.U. after   10 cycles
 SCF Done:  E(UM062X) =  -438.592135274     A.U. after    8 cycles
 SCF Done:  E(UM062X) =  -438.592141797     A.U. after    8 cycles
 SCF Done:  E(UM062X) =  -438.592142359     A.U. after    8 cycles
 Optimization completed.
    -- Stationary point found.

                          Input orientation:
 ---------------------------------------------------------------------
 Center     Atomic      Atomic             Coordinates (Angstroms)
 Number     Number       Type             X           Y           Z
 ---------------------------------------------------------------------
      1          6           0       -1.335220    0.000000    0.000000
      2         16           0        1.335220    0.000000    0.000000
      3          1           0        1.324345   -1.343698   -0.000883
      4          1           0       -1.466801    1.072984    0.002679
      5          1           0       -1.493821   -0.526378   -0.930705
      6          1           0       -1.493875   -0.530985    0.928079
 ---------------------------------------------------------------------

 Alpha  occ. eigenvalues --  -89.89169 -10.61920  -8.25400  -6.17472  -6.17364
 Alpha  occ. eigenvalues --   -6.16840  -0.81399  -0.76398  -0.52417  -0.52338
 Alpha  occ. eigenvalues --   -0.43381  -0.32400  -0.29259
 Alpha virt. eigenvalues --   -0.08436   0.01908   0.04338   0.05182   0.05590
 Alpha virt. eigenvalues --    0.07610   0.07760   0.08547   0.11301   0.13545
 Alpha virt. eigenvalues --    0.17224   0.17978   0.23279   0.32864   0.36309

  Beta  occ. eigenvalues --  -89.89169 -10.61920  -8.25400  -6.17472  -6.17364
  Beta  occ. eigenvalues --   -6.16840  -0.81399  -0.76398  -0.52417  -0.52338
  Beta  occ. eigenvalues --   -0.43381  -0.32400  -0.29259
  Beta virt. eigenvalues --   -0.08436   0.01908   0.04338   0.05182   0.05590
  Beta virt. eigenvalues --    0.07610   0.07760   0.08547   0.11301   0.13545
  Beta virt. eigenvalues --    0.17224   0.17978   0.23279   0.32864   0.36309

 Mulliken charges and spin densities:
               1          2
     1  C   -0.482254   0.000000
     2  S   -0.190658  -0.000000
     3  H    0.060366  -0.000000
     4  H    0.204279   0.000000
     5  H    0.204160   0.000000
     6  H    0.204107   0.000000
 Sum of Mulliken charges =  -0.00000   0.00000

 Dipole moment (field-independent basis, Debye):
    X=             -2.8270    Y=             -0.9313    Z=             -0.0006  Tot=              2.9764
 Quadrupole moment (field-independent basis, Debye-Ang):
   XX=            -20.9303   YY=            -19.3754   ZZ=            -23.3789
   XY=             -1.5275   XZ=             -0.0010   YZ=              0.0026

 Normal termination of Gaussian 16 at Mon Apr 21 19:34:28 2025.
