 Gaussian 16, Revision A.03,
 Gaussian 16:  ES64L-G16RevA.03 25-Dec-2016

 ---------------------------------------
 #p UM062X/6-311+G** force int=superfine
 ---------------------------------------

 -------------------
 Title Card Required
 -------------------
 Symbolic Z-matrix:
 Charge =  1 Multiplicity = 2

                         Standard orientation:
 ---------------------------------------------------------------------
 Center     Atomic      Atomic             Coordinates (Angstroms)
 Number     Number       Type             X           Y           Z
 ---------------------------------------------------------------------
      1          6           0        0.106327    0.416093   -1.730856
      2          6           0       -0.106332   -0.416087    1.730857
      3          1           0       -0.859608   -1.171442    1.538727
      4          1           0        0.406619   -0.592866   -1.989162
      5          1           0       -0.406449    0.592705    1.990018
      6          1           0        0.941045   -0.693322    1.762871
      7          1           0        0.859461    1.171594   -1.538747
      8          1           0       -0.941034    0.693299   -1.763712
 ---------------------------------------------------------------------

 SCF Done:  E(UM062X) =  -79.3247488025     A.U. after   10 cycles

 The electronic state is 2-A.
 Alpha  occ. eigenvalues --  -10.84232 -10.84231  -1.02816  -1.02198  -0.73758
 Alpha  occ. eigenvalues --   -0.73758  -0.73504  -0.73504  -0.49387
 Alpha virt. eigenvalues --   -0.37026  -0.13221  -0.10215  -0.09842  -0.09842
 Alpha virt. eigenvalues --   -0.06243  -0.06243  -0.04553  -0.03189  -0.00856
 Alpha virt. eigenvalues --   -0.00853   0.01278   0.01279   0.03511   0.08184

  Beta  occ. eigenvalues --  -10.84023 -10.84023  -1.00129  -0.99720  -0.73252
  Beta  occ. eigenvalues --   -0.73251  -0.72981  -0.72980
  Beta virt. eigenvalues --   -0.32727  -0.26439  -0.15835  -0.11115  -0.11115
  Beta virt. eigenvalues --   -0.10150  -0.06296  -0.06295  -0.05000  -0.02261
  Beta virt. eigenvalues --   -0.01200  -0.01198   0.01558   0.01560   0.03709

 Mulliken charges and spin densities:
               1          2
     1  C   -0.262270   0.559788
     2  C   -0.262272   0.559787
     3  H    0.254110  -0.019926
     4  H    0.254068  -0.019931
     5  H    0.254092  -0.019929
     6  H    0.254070  -0.019932
     7  H    0.254110  -0.019927
     8  H    0.254092  -0.019931
 Sum of Mulliken charges =   1.00000   1.00000

 Dipole moment (field-independent basis, Debye):
    X=              0.0001    Y=             -0.0001    Z=             -0.0000  Tot=              0.0001
 Quadrupole moment (field-independent basis, Debye-Ang):
   XX=            -11.0365   YY=            -10.2611   ZZ=              3.2507
   XY=              0.2122   XZ=             -0.8821   YZ=             -3.4489

 Normal termination of Gaussian 16 at Wed Nov 13 13:04:26 2024.
