 Gaussian 16, Revision A.03,
 Gaussian 16:  ES64L-G16RevA.03 25-Dec-2016

 --------------------------------------------
 #p opt UM062X/6-311+G** nosymm int=superfine
 --------------------------------------------

 -------------------
 Title Card Required
 -------------------
 Symbolic Z-matrix:
 Charge =  1 Multiplicity = 2

 SCF Done:  E(UM062X) =  -582.158504774     A.U. after   11 cycles
 SCF Done:  E(UM062X) =  -582.158857806     A.U. after    9 cycles
 SCF Done:  E(UM062X) =  -582.158892786     A.U. after    8 cycles
 Optimization completed.
    -- Stationary point found.

                          Input orientation:
 ---------------------------------------------------------------------
 Center     Atomic      Atomic             Coordinates (Angstroms)
 Number     Number       Type             X           Y           Z
 ---------------------------------------------------------------------
      1         14           0       -1.801292    0.000000    0.000000
      2         14           0        1.801292    0.000000    0.000000
      3          1           0        1.953587   -1.456995    0.000002
      4          1           0       -1.953304   -0.728387    1.261885
      5          1           0        1.953795    0.728529   -1.261743
      6          1           0        1.953140    0.728478    1.261853
      7          1           0       -1.953611    1.456993   -0.000106
      8          1           0       -1.953606   -0.728626   -1.261710
 ---------------------------------------------------------------------

 Alpha  occ. eigenvalues --  -67.23471 -67.23471  -5.78300  -5.78299  -4.09981
 Alpha  occ. eigenvalues --   -4.09981  -4.09174  -4.09174  -4.09174  -4.09174
 Alpha  occ. eigenvalues --   -0.82701  -0.81265  -0.62601  -0.62600  -0.62079
 Alpha  occ. eigenvalues --   -0.62079  -0.45722
 Alpha virt. eigenvalues --   -0.27220  -0.13957  -0.12008  -0.10942  -0.10941
 Alpha virt. eigenvalues --   -0.09873  -0.09704  -0.09703  -0.08199  -0.08197
 Alpha virt. eigenvalues --   -0.07820  -0.06412  -0.06406  -0.04066   0.00838

  Beta  occ. eigenvalues --  -67.23213 -67.23213  -5.78228  -5.78226  -4.09362
  Beta  occ. eigenvalues --   -4.09362  -4.09087  -4.09087  -4.09087  -4.09087
  Beta  occ. eigenvalues --   -0.80591  -0.79780  -0.62354  -0.62354  -0.61886
  Beta  occ. eigenvalues --   -0.61886
  Beta virt. eigenvalues --   -0.29716  -0.21599  -0.14438  -0.12091  -0.12090
  Beta virt. eigenvalues --   -0.11007  -0.10037  -0.10037  -0.09881  -0.07656
  Beta virt. eigenvalues --   -0.07655  -0.06632  -0.06152  -0.06152  -0.04078

 Mulliken charges and spin densities:
               1          2
     1  Si   0.498832   0.551548
     2  Si   0.498832   0.551548
     3  H    0.000389  -0.017191
     4  H    0.000385  -0.017178
     5  H    0.000398  -0.017182
     6  H    0.000380  -0.017175
     7  H    0.000390  -0.017191
     8  H    0.000393  -0.017179
 Sum of Mulliken charges =   1.00000   1.00000

 Dipole moment (field-independent basis, Debye):
    X=              0.0000    Y=             -0.0000    Z=              0.0000  Tot=              0.0000
 Quadrupole moment (field-independent basis, Debye-Ang):
   XX=             -5.2219   YY=            -26.0138   ZZ=            -26.0138
   XY=              0.0001   XZ=              0.0000   YZ=              0.0000

 Normal termination of Gaussian 16 at Mon Apr 21 20:13:46 2025.
