 Gaussian 16, Revision A.03,
 Gaussian 16:  ES64L-G16RevA.03 25-Dec-2016

 --------------------------------------------
 #p opt UM062X/6-311+G** nosymm int=superfine
 --------------------------------------------

 -------------------
 Title Card Required
 -------------------
 Symbolic Z-matrix:
 Charge =  1 Multiplicity = 2

 SCF Done:  E(UM062X) =  -78.1083569784     A.U. after    9 cycles
 SCF Done:  E(UM062X) =  -78.1275065773     A.U. after    9 cycles
 SCF Done:  E(UM062X) =  -78.1323788883     A.U. after    8 cycles
 SCF Done:  E(UM062X) =  -78.1326588059     A.U. after    7 cycles
 SCF Done:  E(UM062X) =  -78.1326600714     A.U. after    6 cycles
 Optimization completed.
    -- Stationary point found.

                          Input orientation:
 ---------------------------------------------------------------------
 Center     Atomic      Atomic             Coordinates (Angstroms)
 Number     Number       Type             X           Y           Z
 ---------------------------------------------------------------------
      1          6           0       -0.869477    0.000000    0.000000
      2          6           0        0.869477    0.000000    0.000000
      3          1           0       -1.370988   -0.961950   -0.000000
      4          1           0       -1.371009    0.961920   -0.000000
      5          1           0        1.370988    0.961950    0.000000
      6          1           0        1.371009   -0.961920    0.000000
 ---------------------------------------------------------------------

 Alpha  occ. eigenvalues --  -10.91440 -10.91413  -1.10671  -0.99148  -0.81968
 Alpha  occ. eigenvalues --   -0.75927  -0.72834  -0.60151
 Alpha virt. eigenvalues --   -0.33994  -0.16030  -0.14427  -0.11389  -0.08876
 Alpha virt. eigenvalues --   -0.07815  -0.07431  -0.07267  -0.04679  -0.04503
 Alpha virt. eigenvalues --   -0.01630  -0.01517   0.02733   0.09788   0.18673

  Beta  occ. eigenvalues --  -10.91213 -10.91194  -1.07273  -0.97053  -0.81220
  Beta  occ. eigenvalues --   -0.75576  -0.71619
  Beta virt. eigenvalues --   -0.37922  -0.25927  -0.16015  -0.14565  -0.11750
  Beta virt. eigenvalues --   -0.08822  -0.08088  -0.07279  -0.06693  -0.04536
  Beta virt. eigenvalues --   -0.04020  -0.01207  -0.00905   0.02160   0.10336

 Mulliken charges and spin densities:
               1          2
     1  C   -0.062536   0.539808
     2  C   -0.062536   0.539808
     3  H    0.281268  -0.019905
     4  H    0.281268  -0.019904
     5  H    0.281268  -0.019905
     6  H    0.281268  -0.019904
 Sum of Mulliken charges =   1.00000   1.00000

 Dipole moment (field-independent basis, Debye):
    X=             -0.0000    Y=             -0.0000    Z=              0.0000  Tot=              0.0000
 Quadrupole moment (field-independent basis, Debye-Ang):
   XX=             -3.8778   YY=             -8.3146   ZZ=            -12.1123
   XY=             -0.0000   XZ=              0.0000   YZ=              0.0000

 Normal termination of Gaussian 16 at Tue Nov 19 11:10:21 2024.
