 Gaussian 16, Revision A.03,
 Gaussian 16:  ES64L-G16RevA.03 25-Dec-2016

 --------------------------------------------
 #p opt UM062X/6-311+G** nosymm int=superfine
 --------------------------------------------

 -------------------
 Title Card Required
 -------------------
 Symbolic Z-matrix:
 Charge =  0 Multiplicity = 1

 SCF Done:  E(UM062X) =  -379.710251830     A.U. after   12 cycles
 SCF Done:  E(UM062X) =  -379.710775263     A.U. after   10 cycles
 Optimization completed.
    -- Stationary point found.

                          Input orientation:
 ---------------------------------------------------------------------
 Center     Atomic      Atomic             Coordinates (Angstroms)
 Number     Number       Type             X           Y           Z
 ---------------------------------------------------------------------
      1          6           0       -1.215377    0.000000    0.000000
      2         15           0        1.215377    0.000000    0.000000
      3          1           0       -2.317147    0.000000    0.000000
 ---------------------------------------------------------------------

 Alpha  occ. eigenvalues --  -78.10686 -10.68946  -6.92155  -5.03722  -5.03315
 Alpha  occ. eigenvalues --   -5.03315  -0.74683  -0.63192  -0.41792  -0.27338
 Alpha  occ. eigenvalues --   -0.27338
 Alpha virt. eigenvalues --   -0.11533  -0.11533  -0.07514   0.01599   0.04136
 Alpha virt. eigenvalues --    0.05521   0.05521   0.07262   0.09849   0.09849
 Alpha virt. eigenvalues --    0.15562   0.20523   0.29978   0.32757   0.32757

  Beta  occ. eigenvalues --  -78.10686 -10.68946  -6.92155  -5.03722  -5.03315
  Beta  occ. eigenvalues --   -5.03315  -0.74683  -0.63192  -0.41792  -0.27338
  Beta  occ. eigenvalues --   -0.27338
  Beta virt. eigenvalues --   -0.11533  -0.11533  -0.07514   0.01599   0.04136
  Beta virt. eigenvalues --    0.05521   0.05521   0.07262   0.09849   0.09849
  Beta virt. eigenvalues --    0.15562   0.20523   0.29978   0.32757   0.32757

 Mulliken charges and spin densities:
               1          2
     1  C   -0.337582   0.000000
     2  P    0.117567  -0.000000
     3  H    0.220015  -0.000000
 Sum of Mulliken charges =  -0.00000  -0.00000

 Dipole moment (field-independent basis, Debye):
    X=             -0.7195    Y=              0.0000    Z=              0.0000  Tot=              0.7195
 Quadrupole moment (field-independent basis, Debye-Ang):
   XX=            -12.3598   YY=            -23.0846   ZZ=            -23.0846
   XY=              0.0000   XZ=             -0.0000   YZ=              0.0000

 Normal termination of Gaussian 16 at Mon Apr 21 19:29:47 2025.
