 Gaussian 16, Revision A.03,
 Gaussian 16:  ES64L-G16RevA.03 25-Dec-2016

 ---------------------------------------------------
 #p UM062X/6-311+G** force int=superfine pop=saveNBO
 ---------------------------------------------------

 -------------------
 Title Card Required
 -------------------
 Symbolic Z-matrix:
 Charge =  0 Multiplicity = 1

                         Standard orientation:
 ---------------------------------------------------------------------
 Center     Atomic      Atomic             Coordinates (Angstroms)
 Number     Number       Type             X           Y           Z
 ---------------------------------------------------------------------
      1         16           0        0.000000    0.000000    2.375200
      2         16           0        0.000000    0.000000   -2.375200
 ---------------------------------------------------------------------

 SCF Done:  E(UM062X) =  -796.003472493     A.U. after    9 cycles

 Unable to determine electronic state:  partially filled degenerate orbitals.
 Alpha  occ. eigenvalues --  -89.98346 -89.98346  -8.34199  -8.34199  -6.26223
 Alpha  occ. eigenvalues --   -6.26223  -6.26207  -6.26207  -6.25389  -6.25389
 Alpha  occ. eigenvalues --   -0.77748  -0.77439  -0.34614  -0.34480  -0.30951
 Alpha  occ. eigenvalues --   -0.30325
 Alpha virt. eigenvalues --   -0.24313  -0.23658   0.02797   0.03969   0.04586
 Alpha virt. eigenvalues --    0.04983   0.06682   0.06867   0.07314   0.11500
 Alpha virt. eigenvalues --    0.30808   0.33387   0.34205   0.34930   0.35751

  Beta  occ. eigenvalues --  -89.98346 -89.98346  -8.34199  -8.34199  -6.26223
  Beta  occ. eigenvalues --   -6.26223  -6.26207  -6.26207  -6.25389  -6.25389
  Beta  occ. eigenvalues --   -0.77748  -0.77439  -0.34614  -0.34480  -0.30951
  Beta  occ. eigenvalues --   -0.30325
  Beta virt. eigenvalues --   -0.24313  -0.23658   0.02797   0.03969   0.04586
  Beta virt. eigenvalues --    0.04983   0.06682   0.06867   0.07314   0.11500
  Beta virt. eigenvalues --    0.30808   0.33387   0.34205   0.34930   0.35751

 Mulliken charges and spin densities:
               1          2
     1  S   -0.000000   0.000000
     2  S   -0.000000   0.000000
 Sum of Mulliken charges =  -0.00000   0.00000

 Dipole moment (field-independent basis, Debye):
    X=             -0.0000    Y=             -0.0000    Z=              0.0000  Tot=              0.0000
 Quadrupole moment (field-independent basis, Debye-Ang):
   XX=            -30.4081   YY=            -25.3147   ZZ=            -23.2402
   XY=              0.0000   XZ=             -0.0000   YZ=              0.0000

 Summary of Natural Population Analysis:

                                       Natural Population
                Natural  -----------------------------------------------
    Atom  No    Charge         Core      Valence    Rydberg      Total
 -----------------------------------------------------------------------
      S    1    0.00000      5.00000     2.99944    0.00057     8.00000
      S    2    0.00000      5.00000     2.99944    0.00057     8.00000
 =======================================================================
   * Total *    0.00000      9.99999     5.99887    0.00113    16.00000

 Normal termination of Gaussian 16 at Mon Apr 21 20:09:31 2025.
