 Gaussian 16, Revision A.03,
 Gaussian 16:  ES64L-G16RevA.03 25-Dec-2016

 ---------------------------------------------------
 #p UM062X/6-311+G** force int=superfine pop=saveNBO
 ---------------------------------------------------

 -------------------
 Title Card Required
 -------------------
 Symbolic Z-matrix:
 Charge =  0 Multiplicity = 1

                         Standard orientation:
 ---------------------------------------------------------------------
 Center     Atomic      Atomic             Coordinates (Angstroms)
 Number     Number       Type             X           Y           Z
 ---------------------------------------------------------------------
      1          6           0        0.000000    0.000000   -2.269808
      2          8           0        0.000000    0.000000    1.702356
 ---------------------------------------------------------------------

 SCF Done:  E(UM062X) =  -112.632048265     A.U. after   20 cycles

 The electronic state is 1-SG.
 Alpha  occ. eigenvalues --  -19.69185 -10.82921  -0.99125  -0.72391  -0.37932
 Alpha  occ. eigenvalues --   -0.29924  -0.29924
 Alpha virt. eigenvalues --   -0.22697  -0.22697  -0.18235   0.02281   0.05913
 Alpha virt. eigenvalues --    0.05913   0.07187   0.18456   0.21192   0.21192
 Alpha virt. eigenvalues --    0.24838   0.50937   0.50937   0.51762   0.60955

  Beta  occ. eigenvalues --  -19.69185 -10.82921  -0.99125  -0.72391  -0.37932
  Beta  occ. eigenvalues --   -0.29924  -0.29924
  Beta virt. eigenvalues --   -0.22697  -0.22697  -0.18235   0.02281   0.05913
  Beta virt. eigenvalues --    0.05913   0.07187   0.18456   0.21192   0.21192
  Beta virt. eigenvalues --    0.24838   0.50937   0.50937   0.51762   0.60955

 Mulliken charges and spin densities:
               1          2
     1  C    0.291569  -0.000000
     2  O   -0.291569   0.000000
 Sum of Mulliken charges =  -0.00000   0.00000

 Dipole moment (field-independent basis, Debye):
    X=              0.0000    Y=              0.0000    Z=             -5.5314  Tot=              5.5314
 Quadrupole moment (field-independent basis, Debye-Ang):
   XX=            -12.3704   YY=            -12.3704   ZZ=             -7.8953
   XY=              0.0000   XZ=              0.0000   YZ=              0.0000

 Summary of Natural Population Analysis:

                                       Natural Population
                Natural  -----------------------------------------------
    Atom  No    Charge         Core      Valence    Rydberg      Total
 -----------------------------------------------------------------------
      C    1    0.14937      1.00000     1.85054    0.00009     2.85063
      O    2   -0.14937      1.00000     3.14865    0.00072     4.14937
 =======================================================================
   * Total *   -0.00000      2.00000     4.99919    0.00081     7.00000

 Normal termination of Gaussian 16 at Mon Apr 21 19:31:21 2025.
