 Gaussian 16, Revision A.03,
 Gaussian 16:  ES64L-G16RevA.03 25-Dec-2016

 --------------------------------------------
 #p opt UM062X/6-311+G** nosymm int=superfine
 --------------------------------------------

 -------------------
 Title Card Required
 -------------------
 Symbolic Z-matrix:
 Charge =  0 Multiplicity = 2

 SCF Done:  E(UM062X) =  -25.9191917593     A.U. after   11 cycles
 SCF Done:  E(UM062X) =  -25.9196062909     A.U. after    9 cycles
 SCF Done:  E(UM062X) =  -25.9196899543     A.U. after    8 cycles
 Optimization completed.
    -- Stationary point found.

                          Input orientation:
 ---------------------------------------------------------------------
 Center     Atomic      Atomic             Coordinates (Angstroms)
 Number     Number       Type             X           Y           Z
 ---------------------------------------------------------------------
      1          5           0       -0.732842   -0.000001   -0.000008
      2          1           0       -1.251698   -1.066289    0.000007
      3          1           0       -1.251698    1.066288   -0.000247
 ---------------------------------------------------------------------

 Alpha  occ. eigenvalues --   -7.08716  -0.58178  -0.44023  -0.25861
 Alpha virt. eigenvalues --   -0.05066   0.03030   0.04228   0.05696   0.05846
 Alpha virt. eigenvalues --    0.16309   0.18670   0.35257   0.36492   0.42353
 Alpha virt. eigenvalues --    0.42452   0.56961   0.58410   0.78927   0.82762

  Beta  occ. eigenvalues --   -7.07939  -0.55359  -0.43027
  Beta virt. eigenvalues --   -0.06942  -0.04146   0.02567   0.05048   0.08861
  Beta virt. eigenvalues --    0.10754   0.16113   0.17021   0.33891   0.35656
  Beta virt. eigenvalues --    0.39728   0.40877   0.57634   0.59750   0.81108

 Mulliken charges and spin densities:
               1          2
     1  B   -0.042851   0.973143
     2  H    0.021425   0.013428
     3  H    0.021425   0.013428
 Sum of Mulliken charges =  -0.00000   1.00000

 Dipole moment (field-independent basis, Debye):
    X=             -0.5180    Y=             -0.0000    Z=             -0.0001  Tot=              0.5180
 Quadrupole moment (field-independent basis, Debye-Ang):
   XX=             -8.6008   YY=             -8.3848   ZZ=             -6.7802
   XY=              0.0000   XZ=             -0.0005   YZ=              0.0002

 1\1\GINC-NODE02\FOpt\UM062X\6-311+G(d,p)\B1H2(2)\SZHAO\16-Apr-2025\0\\
 #p opt UM062X/6-311+G** nosymm int=superfine\\Title Card Required\\0,2
 \B,-0.7328422908,-0.000000519,-0.0000080942\H,-1.2516978418,-1.0662890
 445,0.0000069654\H,-1.2516978674,1.0662880336,-0.0002474812\\Version=E
 S64L-G16RevA.03\HF=-25.91969\S2=0.751416\S2-1=0.\S2A=0.750001\RMSD=7.4
 49e-09\RMSF=1.039e-05\Dipole=-0.2037935,0.,-0.0000441\Quadrupole=-0.50
 47226,-0.3441547,0.8488773,0.0000002,-0.0003505,0.0001423\PG=CS [SG(B1
 H2)]\\@

 Normal termination of Gaussian 16 at Wed Apr 16 07:42:15 2025.
