 Gaussian 16, Revision A.03,
 Gaussian 16:  ES64L-G16RevA.03 25-Dec-2016

 --------------------------------------------
 #p opt UM062X/6-311+G** nosymm int=superfine
 --------------------------------------------

 -------------------
 Title Card Required
 -------------------
 Symbolic Z-matrix:
 Charge =  0 Multiplicity = 1

 SCF Done:  E(UM062X) =  -379.940576509     A.U. after   11 cycles
 SCF Done:  E(UM062X) =  -379.940596531     A.U. after    8 cycles
 Optimization completed.
    -- Stationary point found.

                          Input orientation:
 ---------------------------------------------------------------------
 Center     Atomic      Atomic             Coordinates (Angstroms)
 Number     Number       Type             X           Y           Z
 ---------------------------------------------------------------------
      1          6           0       -0.865377    0.000000    0.000000
      2         15           0        0.865377    0.000000    0.000000
      3          1           0       -1.944523   -0.000000    0.000000
 ---------------------------------------------------------------------

 Alpha  occ. eigenvalues --  -78.06116 -10.61560  -6.88147  -4.99584  -4.99584
 Alpha  occ. eigenvalues --   -4.99477  -0.77955  -0.62626  -0.42605  -0.31881
 Alpha  occ. eigenvalues --   -0.31881
 Alpha virt. eigenvalues --   -0.04778  -0.04778   0.01310   0.02860   0.04934
 Alpha virt. eigenvalues --    0.04934   0.07049   0.10854   0.10981   0.10981
 Alpha virt. eigenvalues --    0.16371   0.22842   0.32757   0.32757   0.35689

  Beta  occ. eigenvalues --  -78.06116 -10.61560  -6.88147  -4.99584  -4.99584
  Beta  occ. eigenvalues --   -4.99477  -0.77955  -0.62626  -0.42605  -0.31881
  Beta  occ. eigenvalues --   -0.31881
  Beta virt. eigenvalues --   -0.04778  -0.04778   0.01310   0.02860   0.04934
  Beta virt. eigenvalues --    0.04934   0.07049   0.10854   0.10981   0.10981
  Beta virt. eigenvalues --    0.16371   0.22842   0.32757   0.32757   0.35689

 Mulliken charges and spin densities:
               1          2
     1  C   -0.292267  -0.000000
     2  P    0.093226   0.000000
     3  H    0.199041   0.000000
 Sum of Mulliken charges =  -0.00000   0.00000

 Dipole moment (field-independent basis, Debye):
    X=             -0.2864    Y=             -0.0000    Z=             -0.0000  Tot=              0.2864
 Quadrupole moment (field-independent basis, Debye-Ang):
   XX=            -15.2485   YY=            -20.8585   ZZ=            -20.8585
   XY=              0.0000   XZ=             -0.0000   YZ=             -0.0000

 Normal termination of Gaussian 16 at Mon Apr 21 19:28:14 2025.
