 Gaussian 16, Revision A.03,
 Gaussian 16:  ES64L-G16RevA.03 25-Dec-2016

 --------------------------------------------
 #p opt UM062X/6-311+G** nosymm int=superfine
 --------------------------------------------

 -------------------
 Title Card Required
 -------------------
 Symbolic Z-matrix:
 Charge =  0 Multiplicity = 1

 SCF Done:  E(UM062X) =  -51.8191901968     A.U. after   10 cycles
 SCF Done:  E(UM062X) =  -51.8240277943     A.U. after    9 cycles
 SCF Done:  E(UM062X) =  -51.8266324132     A.U. after   11 cycles
 SCF Done:  E(UM062X) =  -51.8266343425     A.U. after    8 cycles
 SCF Done:  E(UM062X) =  -51.8266131266     A.U. after    9 cycles
 SCF Done:  E(UM062X) =  -51.8266343355     A.U. after    9 cycles
 Optimization completed.
    -- Stationary point found.

                          Input orientation:
 ---------------------------------------------------------------------
 Center     Atomic      Atomic             Coordinates (Angstroms)
 Number     Number       Type             X           Y           Z
 ---------------------------------------------------------------------
      1          5           0       -1.795607    0.000000    0.000000
      2          5           0        1.795607    0.000000    0.000000
      3          1           0       -2.270503   -1.080096    0.000062
      4          1           0        2.270503    1.080081   -0.005730
      5          1           0       -2.270504    1.080096    0.000697
      6          1           0        2.270504   -1.080076    0.006468
 ---------------------------------------------------------------------

 Alpha  occ. eigenvalues --   -7.11147  -7.11145  -0.57725  -0.57209  -0.44733
 Alpha  occ. eigenvalues --   -0.44547  -0.21327
 Alpha virt. eigenvalues --   -0.05286  -0.05215  -0.03492   0.02303   0.03420
 Alpha virt. eigenvalues --    0.03853   0.05560   0.06273   0.07379   0.08053
 Alpha virt. eigenvalues --    0.10168   0.15604   0.16462   0.17172   0.24886

  Beta  occ. eigenvalues --   -7.11147  -7.11145  -0.57725  -0.57209  -0.44733
  Beta  occ. eigenvalues --   -0.44547  -0.21327
  Beta virt. eigenvalues --   -0.05286  -0.05215  -0.03492   0.02303   0.03420
  Beta virt. eigenvalues --    0.03853   0.05560   0.06273   0.07379   0.08053
  Beta virt. eigenvalues --    0.10168   0.15604   0.16462   0.17172   0.24886

 Mulliken charges and spin densities:
               1          2
     1  B   -0.054186   0.000000
     2  B   -0.054186  -0.000000
     3  H    0.027093   0.000000
     4  H    0.027093  -0.000000
     5  H    0.027093   0.000000
     6  H    0.027093  -0.000000
 Sum of Mulliken charges =  -0.00000   0.00000

 Dipole moment (field-independent basis, Debye):
    X=              0.0000    Y=              0.0000    Z=              0.0005  Tot=              0.0005
 Quadrupole moment (field-independent basis, Debye-Ang):
   XX=            -12.3548   YY=            -16.9246   ZZ=            -14.3815
   XY=             -0.0000   XZ=              0.0000   YZ=              0.0068

 Normal termination of Gaussian 16 at Mon Apr 21 17:17:00 2025.
