 Gaussian 16, Revision A.03,
 Gaussian 16:  ES64L-G16RevA.03 25-Dec-2016

 --------------------------------------------
 #p opt UM062X/6-311+G** nosymm int=superfine
 --------------------------------------------

 -------------------
 Title Card Required
 -------------------
 Symbolic Z-matrix:
 Charge =  0 Multiplicity = 1

 SCF Done:  E(UM062X) =  -79.6433987436     A.U. after   10 cycles
 SCF Done:  E(UM062X) =  -79.6441497062     A.U. after    8 cycles
 SCF Done:  E(UM062X) =  -79.6443168331     A.U. after    9 cycles
 Optimization completed.
    -- Stationary point found.

                          Input orientation:
 ---------------------------------------------------------------------
 Center     Atomic      Atomic             Coordinates (Angstroms)
 Number     Number       Type             X           Y           Z
 ---------------------------------------------------------------------
      1          6           0       -1.396675    0.000000    0.000000
      2          6           0        1.396800    0.000000    0.000000
      3          1           0        1.553301   -0.925560    0.535566
      4          1           0       -1.553168   -0.926604   -0.533759
      5          1           0        1.553296    0.926604    0.533759
      6          1           0        1.553263   -0.001043   -1.069349
      7          1           0       -1.553176    0.925560   -0.535566
      8          1           0       -1.553141    0.001042    1.069348
 ---------------------------------------------------------------------

 Alpha  occ. eigenvalues --  -10.56401 -10.56398  -0.77021  -0.75187  -0.48500
 Alpha  occ. eigenvalues --   -0.48500  -0.47474  -0.47473  -0.25695
 Alpha virt. eigenvalues --   -0.05384   0.02751   0.05421   0.05421   0.06066
 Alpha virt. eigenvalues --    0.08006   0.08006   0.10648   0.12649   0.18262
 Alpha virt. eigenvalues --    0.18262   0.21657   0.21657   0.24279   0.25545

  Beta  occ. eigenvalues --  -10.56401 -10.56398  -0.77021  -0.75187  -0.48500
  Beta  occ. eigenvalues --   -0.48500  -0.47474  -0.47473  -0.25695
  Beta virt. eigenvalues --   -0.05384   0.02751   0.05421   0.05421   0.06066
  Beta virt. eigenvalues --    0.08006   0.08006   0.10648   0.12649   0.18262
  Beta virt. eigenvalues --    0.18262   0.21657   0.21657   0.24279   0.25545

 Mulliken charges and spin densities:
               1          2
     1  C   -0.518936   0.000000
     2  C   -0.518936  -0.000000
     3  H    0.172978   0.000000
     4  H    0.172978   0.000000
     5  H    0.172978   0.000000
     6  H    0.172979  -0.000000
     7  H    0.172978   0.000000
     8  H    0.172979   0.000000
 Sum of Mulliken charges =  -0.00000   0.00000

 Dipole moment (field-independent basis, Debye):
    X=             -0.0000    Y=             -0.0000    Z=             -0.0000  Tot=              0.0000
 Quadrupole moment (field-independent basis, Debye-Ang):
   XX=            -15.4703   YY=            -14.7924   ZZ=            -14.7925
   XY=             -0.0000   XZ=              0.0001   YZ=             -0.0000

 Normal termination of Gaussian 16 at Tue Dec  3 09:59:13 2024.
