 Gaussian 16, Revision A.03,
 Gaussian 16:  ES64L-G16RevA.03 25-Dec-2016

 --------------------------------------------
 #p opt UM062X/6-311+G** nosymm int=superfine
 --------------------------------------------

 -------------------
 Title Card Required
 -------------------
 Symbolic Z-matrix:
 Charge =  0 Multiplicity = 1

 SCF Done:  E(UM062X) =  -581.143084726     A.U. after    9 cycles
 SCF Done:  E(UM062X) =  -581.162655483     A.U. after    8 cycles
 SCF Done:  E(UM062X) =  -581.174542617     A.U. after    8 cycles
 SCF Done:  E(UM062X) =  -581.174562597     A.U. after    7 cycles
 Optimization completed.
    -- Stationary point found.

                          Input orientation:
 ---------------------------------------------------------------------
 Center     Atomic      Atomic             Coordinates (Angstroms)
 Number     Number       Type             X           Y           Z
 ---------------------------------------------------------------------
      1         14           0       -2.487518    0.000000    0.000000
      2         14           0        2.487518    0.000000    0.000000
      3          1           0       -3.549959   -1.084441    0.000043
      4          1           0        3.549959    1.084441   -0.000543
      5          1           0       -3.549963    1.084437    0.000259
      6          1           0        3.549963   -1.084436    0.000845
 ---------------------------------------------------------------------

 Alpha  occ. eigenvalues --  -67.01327 -67.01327  -5.56048  -5.56048  -3.87297
 Alpha  occ. eigenvalues --   -3.87297  -3.86754  -3.86754  -3.86612  -3.86612
 Alpha  occ. eigenvalues --   -0.57292  -0.57249  -0.37885  -0.37869  -0.28820
 Alpha  occ. eigenvalues --   -0.27538
 Alpha virt. eigenvalues --   -0.08104  -0.07650   0.02079   0.02517   0.02951
 Alpha virt. eigenvalues --    0.04541   0.05515   0.06042   0.06136   0.07425
 Alpha virt. eigenvalues --    0.07804   0.08968   0.11377   0.13915   0.28608

  Beta  occ. eigenvalues --  -67.01327 -67.01327  -5.56048  -5.56048  -3.87297
  Beta  occ. eigenvalues --   -3.87297  -3.86754  -3.86754  -3.86612  -3.86612
  Beta  occ. eigenvalues --   -0.57292  -0.57249  -0.37885  -0.37869  -0.28820
  Beta  occ. eigenvalues --   -0.27538
  Beta virt. eigenvalues --   -0.08104  -0.07650   0.02079   0.02517   0.02951
  Beta virt. eigenvalues --    0.04541   0.05515   0.06042   0.06136   0.07425
  Beta virt. eigenvalues --    0.07804   0.08968   0.11377   0.13915   0.28608

 Mulliken charges and spin densities:
               1          2
     1  Si   0.323265  -0.000000
     2  Si   0.323265  -0.000000
     3  H   -0.161632   0.000000
     4  H   -0.161632   0.000000
     5  H   -0.161632  -0.000000
     6  H   -0.161632   0.000000
 Sum of Mulliken charges =  -0.00000   0.00000

 Dipole moment (field-independent basis, Debye):
    X=              0.0000    Y=              0.0000    Z=              0.0001  Tot=              0.0001
 Quadrupole moment (field-independent basis, Debye-Ang):
   XX=            -35.0097   YY=            -32.7085   ZZ=            -24.3666
   XY=             -0.0000   XZ=              0.0000   YZ=              0.0023

 Normal termination of Gaussian 16 at Mon Apr 21 20:30:48 2025.
