 Gaussian 16, Revision A.03,
 Gaussian 16:  ES64L-G16RevA.03 25-Dec-2016

 --------------------------------------------
 #p opt UM062X/6-311+G** nosymm int=superfine
 --------------------------------------------

 -------------------
 Title Card Required
 -------------------
 Symbolic Z-matrix:
 Charge = -1 Multiplicity = 2

 SCF Done:  E(UM062X) =  -53.1958106764     A.U. after   12 cycles
 SCF Done:  E(UM062X) =  -53.2005204873     A.U. after   11 cycles
 SCF Done:  E(UM062X) =  -53.2015770604     A.U. after   10 cycles
 SCF Done:  E(UM062X) =  -53.2015833314     A.U. after    8 cycles
 Optimization completed.
    -- Stationary point found.

                          Input orientation:
 ---------------------------------------------------------------------
 Center     Atomic      Atomic             Coordinates (Angstroms)
 Number     Number       Type             X           Y           Z
 ---------------------------------------------------------------------
      1          5           0       -2.265672    0.000000    0.000000
      2          5           0        2.265672    0.000000    0.000000
      3          1           0        2.318833   -1.197056   -0.000015
      4          1           0       -2.318823   -0.598516    1.036685
      5          1           0        2.318990    0.598534   -1.036667
      6          1           0        2.318754    0.598503    1.036696
      7          1           0       -2.318841    1.197056   -0.000001
      8          1           0       -2.318913   -0.598521   -1.036678
 ---------------------------------------------------------------------

 Alpha  occ. eigenvalues --   -6.85217  -6.85216  -0.40474  -0.40180  -0.22356
 Alpha  occ. eigenvalues --   -0.22356  -0.22234  -0.22234   0.01389
 Alpha virt. eigenvalues --    0.10314   0.16494   0.17564   0.17564   0.18087
 Alpha virt. eigenvalues --    0.18087   0.18474   0.23252   0.24046   0.32747
 Alpha virt. eigenvalues --    0.32747   0.33693   0.33693   0.34919   0.38526

  Beta  occ. eigenvalues --   -6.85179  -6.85179  -0.38809  -0.38609  -0.22209
  Beta  occ. eigenvalues --   -0.22208  -0.22064  -0.22064
  Beta virt. eigenvalues --    0.07103   0.12913   0.13055   0.14234   0.14234
  Beta virt. eigenvalues --    0.17527   0.17527   0.19926   0.22328   0.24672
  Beta virt. eigenvalues --    0.31688   0.31688   0.32633   0.32750   0.32751

 Mulliken charges and spin densities:
               1          2
     1  B   -0.360565   0.547963
     2  B   -0.360565   0.547963
     3  H   -0.046448  -0.015954
     4  H   -0.046492  -0.016005
     5  H   -0.046498  -0.016005
     6  H   -0.046489  -0.016005
     7  H   -0.046449  -0.015954
     8  H   -0.046495  -0.016005
 Sum of Mulliken charges =  -1.00000   1.00000

 Dipole moment (field-independent basis, Debye):
    X=              0.0000    Y=             -0.0000    Z=              0.0001  Tot=              0.0001
 Quadrupole moment (field-independent basis, Debye-Ang):
   XX=            -48.3141   YY=            -24.3638   ZZ=            -24.3640
   XY=             -0.0000   XZ=              0.0000   YZ=              0.0000

 Normal termination of Gaussian 16 at Mon Apr 21 16:53:16 2025.
