 Gaussian 16, Revision A.03,
 Gaussian 16:  ES64L-G16RevA.03 25-Dec-2016

 ---------------------------------------------------------
 #p opt UM062X/6-311+G** nosymm int=superfine SCF=NoVarAcc
 ---------------------------------------------------------

 -------------------
 Title Card Required
 -------------------
 Symbolic Z-matrix:
 Charge =  1 Multiplicity = 2

 SCF Done:  E(UM062X) =  -77.9042171090     A.U. after   10 cycles
 SCF Done:  E(UM062X) =  -77.9081586525     A.U. after    9 cycles
 SCF Done:  E(UM062X) =  -77.9106911646     A.U. after    9 cycles
 SCF Done:  E(UM062X) =  -77.9106944975     A.U. after    8 cycles
 Optimization completed.
    -- Stationary point found.

                          Input orientation:
 ---------------------------------------------------------------------
 Center     Atomic      Atomic             Coordinates (Angstroms)
 Number     Number       Type             X           Y           Z
 ---------------------------------------------------------------------
      1          6           0       -1.906027    0.000000    0.000000
      2          6           0        1.906027    0.000000    0.000000
      3          1           0       -2.463929   -0.942773    0.000000
      4          1           0       -2.463874    0.942805    0.000000
      5          1           0        2.463929    0.942773    0.000000
      6          1           0        2.463874   -0.942805    0.000000
 ---------------------------------------------------------------------

 Alpha  occ. eigenvalues --  -10.88673 -10.88672  -0.99960  -0.99873  -0.74642
 Alpha  occ. eigenvalues --   -0.74596  -0.58420  -0.56693
 Alpha virt. eigenvalues --   -0.31918  -0.31497  -0.12766  -0.10870  -0.09170
 Alpha virt. eigenvalues --   -0.07217  -0.06481  -0.05508  -0.04269  -0.01607
 Alpha virt. eigenvalues --   -0.00478   0.00214   0.02180   0.05810   0.27324

  Beta  occ. eigenvalues --  -10.87864 -10.87863  -0.97768  -0.97551  -0.73609
  Beta  occ. eigenvalues --   -0.73550  -0.47356
  Beta virt. eigenvalues --   -0.35846  -0.30074  -0.29530  -0.12548  -0.10968
  Beta virt. eigenvalues --   -0.08996  -0.07004  -0.06547  -0.04502  -0.03802
  Beta virt. eigenvalues --   -0.01344   0.00207   0.00610   0.02274   0.06562

 Mulliken charges and spin densities:
               1          2
     1  C    0.021680   0.486317
     2  C    0.021680   0.486317
     3  H    0.239160   0.006842
     4  H    0.239159   0.006841
     5  H    0.239160   0.006842
     6  H    0.239159   0.006841
 Sum of Mulliken charges =   1.00000   1.00000

 Dipole moment (field-independent basis, Debye):
    X=             -0.0000    Y=              0.0000    Z=              0.0000  Tot=              0.0000
 Quadrupole moment (field-independent basis, Debye-Ang):
   XX=             17.7810   YY=             -9.4291   ZZ=            -10.7414
   XY=             -0.0000   XZ=             -0.0000   YZ=             -0.0000

 Normal termination of Gaussian 16 at Tue Dec  3 13:32:09 2024.
