 Gaussian 16, Revision A.03,
 Gaussian 16:  ES64L-G16RevA.03 25-Dec-2016

 ---------------------------------------------------
 #p UM062X/6-311+G** force int=superfine pop=saveNBO
 ---------------------------------------------------

 -------------------
 Title Card Required
 -------------------
 Symbolic Z-matrix:
 Charge =  0 Multiplicity = 1

                         Standard orientation:
 ---------------------------------------------------------------------
 Center     Atomic      Atomic             Coordinates (Angstroms)
 Number     Number       Type             X           Y           Z
 ---------------------------------------------------------------------
      1          6           0        0.000000    0.000000   -2.129885
      2         16           0        0.000000    0.000000    0.798707
 ---------------------------------------------------------------------

 SCF Done:  E(UM062X) =  -435.866838489     A.U. after   18 cycles

 The electronic state is 1-SG.
 Alpha  occ. eigenvalues --  -89.93181 -10.80699  -8.29020  -6.21456  -6.20433
 Alpha  occ. eigenvalues --   -6.20433  -0.74176  -0.69960  -0.34404  -0.30319
 Alpha  occ. eigenvalues --   -0.30319
 Alpha virt. eigenvalues --   -0.16908  -0.16908  -0.14315   0.03120   0.05379
 Alpha virt. eigenvalues --    0.05938   0.05938   0.08777   0.08777   0.08781
 Alpha virt. eigenvalues --    0.14638   0.36326   0.36326   0.37293   0.51645

  Beta  occ. eigenvalues --  -89.93181 -10.80699  -8.29020  -6.21456  -6.20433
  Beta  occ. eigenvalues --   -6.20433  -0.74176  -0.69960  -0.34404  -0.30319
  Beta  occ. eigenvalues --   -0.30319
  Beta virt. eigenvalues --   -0.16908  -0.16908  -0.14315   0.03120   0.05379
  Beta virt. eigenvalues --    0.05938   0.05938   0.08777   0.08777   0.08781
  Beta virt. eigenvalues --    0.14638   0.36326   0.36326   0.37293   0.51645

 Mulliken charges and spin densities:
               1          2
     1  C    0.191621  -0.000000
     2  S   -0.191621   0.000000
 Sum of Mulliken charges =   0.00000   0.00000

 Dipole moment (field-independent basis, Debye):
    X=              0.0000    Y=              0.0000    Z=             -2.6677  Tot=              2.6677
 Quadrupole moment (field-independent basis, Debye-Ang):
   XX=            -20.8582   YY=            -20.8582   ZZ=            -14.5424
   XY=              0.0000   XZ=              0.0000   YZ=              0.0000

 Summary of Natural Population Analysis:

                                       Natural Population
                Natural  -----------------------------------------------
    Atom  No    Charge         Core      Valence    Rydberg      Total
 -----------------------------------------------------------------------
      C    1    0.14853      1.00000     1.85087    0.00060     2.85147
      S    2   -0.14853      4.99999     3.14785    0.00069     8.14853
 =======================================================================
   * Total *    0.00000      5.99999     4.99872    0.00128    11.00000

 Normal termination of Gaussian 16 at Mon Apr 21 19:43:43 2025.
