 Gaussian 16, Revision A.03,
 Gaussian 16:  ES64L-G16RevA.03 25-Dec-2016

 --------------------------------------------
 #p opt UM062X/6-311+G** nosymm int=superfine
 --------------------------------------------

 -------------------
 Title Card Required
 -------------------
 Symbolic Z-matrix:
 Charge =  0 Multiplicity = 1

 SCF Done:  E(UM062X) =  -797.467054177     A.U. after   13 cycles
 SCF Done:  E(UM062X) =  -797.468482726     A.U. after   12 cycles
 SCF Done:  E(UM062X) =  -797.469170009     A.U. after   12 cycles
 SCF Done:  E(UM062X) =  -797.469197971     A.U. after   11 cycles
 SCF Done:  E(UM062X) =  -797.469198650     A.U. after   10 cycles
 SCF Done:  E(UM062X) =  -797.469199309     A.U. after   11 cycles
 SCF Done:  E(UM062X) =  -797.469199399     A.U. after   11 cycles
 SCF Done:  E(UM062X) =  -797.469199917     A.U. after   11 cycles
 SCF Done:  E(UM062X) =  -797.469199816     A.U. after   10 cycles
 SCF Done:  E(UM062X) =  -797.469200036     A.U. after   11 cycles
 SCF Done:  E(UM062X) =  -797.469200045     A.U. after   10 cycles
 Optimization completed.
    -- Stationary point found.

                          Input orientation:
 ---------------------------------------------------------------------
 Center     Atomic      Atomic             Coordinates (Angstroms)
 Number     Number       Type             X           Y           Z
 ---------------------------------------------------------------------
      1         16           0       -1.518191    0.000000    0.000000
      2         16           0        1.518191    0.000000    0.000000
      3          1           0       -1.472009   -1.341617   -0.091289
      4          1           0        1.471570    0.124798    1.338778
 ---------------------------------------------------------------------

 Alpha  occ. eigenvalues --  -89.94676 -89.94675  -8.30815  -8.30815  -6.22975
 Alpha  occ. eigenvalues --   -6.22975  -6.22708  -6.22707  -6.22156  -6.22156
 Alpha  occ. eigenvalues --   -0.82591  -0.80132  -0.47409  -0.47264  -0.35593
 Alpha  occ. eigenvalues --   -0.33444  -0.33091
 Alpha virt. eigenvalues --   -0.16421   0.01925   0.03203   0.04692   0.05027
 Alpha virt. eigenvalues --    0.06228   0.07313   0.07385   0.07517   0.11424
 Alpha virt. eigenvalues --    0.13204   0.30476   0.31023   0.32265   0.35846

  Beta  occ. eigenvalues --  -89.94676 -89.94675  -8.30815  -8.30815  -6.22975
  Beta  occ. eigenvalues --   -6.22975  -6.22708  -6.22707  -6.22156  -6.22156
  Beta  occ. eigenvalues --   -0.82591  -0.80132  -0.47409  -0.47264  -0.35593
  Beta  occ. eigenvalues --   -0.33444  -0.33091
  Beta virt. eigenvalues --   -0.16421   0.01925   0.03203   0.04692   0.05027
  Beta virt. eigenvalues --    0.06228   0.07313   0.07385   0.07517   0.11424
  Beta virt. eigenvalues --    0.13204   0.30476   0.31023   0.32265   0.35846

 Mulliken charges and spin densities:
               1          2
     1  S   -0.088492   0.000000
     2  S   -0.088477  -0.000000
     3  H    0.088493  -0.000000
     4  H    0.088476   0.000000
 Sum of Mulliken charges =  -0.00000  -0.00000

 Dipole moment (field-independent basis, Debye):
    X=             -0.0005    Y=             -0.9719    Z=              0.9966  Tot=              1.3920
 Quadrupole moment (field-independent basis, Debye-Ang):
   XX=            -25.3950   YY=            -27.9276   ZZ=            -27.9607
   XY=              2.0307   XZ=              1.9798   YZ=              0.6607

 Normal termination of Gaussian 16 at Mon Apr 21 21:17:36 2025.
