 Gaussian 16, Revision A.03,
 Gaussian 16:  ES64L-G16RevA.03 25-Dec-2016

 --------------------------------------------
 #p opt UM062X/6-311+G** nosymm int=superfine
 --------------------------------------------

 -------------------
 Title Card Required
 -------------------
 Symbolic Z-matrix:
 Charge =  0 Multiplicity = 1

 SCF Done:  E(UM062X) =  -579.893854790     A.U. after    9 cycles
 SCF Done:  E(UM062X) =  -579.897021765     A.U. after    9 cycles
 SCF Done:  E(UM062X) =  -579.897030434     A.U. after    8 cycles
 Optimization completed.
    -- Stationary point found.

                          Input orientation:
 ---------------------------------------------------------------------
 Center     Atomic      Atomic             Coordinates (Angstroms)
 Number     Number       Type             X           Y           Z
 ---------------------------------------------------------------------
      1         14           0       -1.803705    0.000000    0.000000
      2         14           0        1.803705    0.000000    0.000000
      3          1           0       -3.333493   -0.000017    0.000000
      4          1           0        3.333493    0.000050   -0.000000
 ---------------------------------------------------------------------

 Alpha  occ. eigenvalues --  -67.04430 -67.04430  -5.58847  -5.58846  -3.89942
 Alpha  occ. eigenvalues --   -3.89941  -3.89495  -3.89495  -3.89365  -3.89365
 Alpha  occ. eigenvalues --   -0.55113  -0.54307  -0.34986  -0.29938  -0.18804
 Alpha virt. eigenvalues --   -0.09743  -0.09680  -0.07680   0.02295   0.02968
 Alpha virt. eigenvalues --    0.04546   0.05387   0.05744   0.06037   0.07097
 Alpha virt. eigenvalues --    0.08200   0.09457   0.19279   0.29213   0.29545

  Beta  occ. eigenvalues --  -67.04430 -67.04430  -5.58847  -5.58846  -3.89942
  Beta  occ. eigenvalues --   -3.89941  -3.89495  -3.89495  -3.89365  -3.89365
  Beta  occ. eigenvalues --   -0.55113  -0.54307  -0.34986  -0.29938  -0.18804
  Beta virt. eigenvalues --   -0.09743  -0.09680  -0.07680   0.02295   0.02968
  Beta virt. eigenvalues --    0.04546   0.05387   0.05744   0.06037   0.07097
  Beta virt. eigenvalues --    0.08200   0.09457   0.19279   0.29213   0.29545

 Mulliken charges and spin densities:
               1          2
     1  Si   0.143526  -0.000000
     2  Si   0.143526   0.000000
     3  H   -0.143526   0.000000
     4  H   -0.143526  -0.000000
 Sum of Mulliken charges =  -0.00000   0.00000

 Dipole moment (field-independent basis, Debye):
    X=              0.0000    Y=              0.0000    Z=             -0.0000  Tot=              0.0000
 Quadrupole moment (field-independent basis, Debye-Ang):
   XX=            -31.3192   YY=            -24.2256   ZZ=            -35.5508
   XY=             -0.0002   XZ=              0.0000   YZ=             -0.0621

 Normal termination of Gaussian 16 at Mon Apr 21 21:24:37 2025.
