 Gaussian 16, Revision A.03,
 Gaussian 16:  ES64L-G16RevA.03 25-Dec-2016

 --------------------------------------------
 #p opt UM062X/6-311+G** nosymm int=superfine
 --------------------------------------------

 -------------------
 Title Card Required
 -------------------
 Symbolic Z-matrix:
 Charge =  0 Multiplicity = 1

 SCF Done:  E(UM062X) =  -379.593137460     A.U. after   15 cycles
 SCF Done:  E(UM062X) =  -379.594438957     A.U. after   11 cycles
 SCF Done:  E(UM062X) =  -379.594443930     A.U. after    8 cycles
 Optimization completed.
    -- Stationary point found.

                          Input orientation:
 ---------------------------------------------------------------------
 Center     Atomic      Atomic             Coordinates (Angstroms)
 Number     Number       Type             X           Y           Z
 ---------------------------------------------------------------------
      1          6           0       -1.615377    0.000000    0.000000
      2         15           0        1.615377    0.000000    0.000000
      3          1           0       -2.735800   -0.000000    0.000000
 ---------------------------------------------------------------------

 Alpha  occ. eigenvalues --  -78.08289 -10.71264  -6.90103  -5.01967  -5.01087
 Alpha  occ. eigenvalues --   -5.01087  -0.76075  -0.61179  -0.42002  -0.24664
 Alpha  occ. eigenvalues --   -0.24664
 Alpha virt. eigenvalues --   -0.14572  -0.14572  -0.11471   0.01239   0.04034
 Alpha virt. eigenvalues --    0.05957   0.05957   0.07580   0.08842   0.08842
 Alpha virt. eigenvalues --    0.13870   0.17679   0.32901   0.32901   0.33954

  Beta  occ. eigenvalues --  -78.08289 -10.71264  -6.90103  -5.01967  -5.01087
  Beta  occ. eigenvalues --   -5.01087  -0.76075  -0.61179  -0.42002  -0.24664
  Beta  occ. eigenvalues --   -0.24664
  Beta virt. eigenvalues --   -0.14572  -0.14572  -0.11471   0.01239   0.04034
  Beta virt. eigenvalues --    0.05957   0.05957   0.07580   0.08842   0.08842
  Beta virt. eigenvalues --    0.13870   0.17679   0.32901   0.32901   0.33954

 Mulliken charges and spin densities:
               1          2
     1  C   -0.168226   0.000000
     2  P   -0.009214  -0.000000
     3  H    0.177440  -0.000000
 Sum of Mulliken charges =  -0.00000   0.00000

 Dipole moment (field-independent basis, Debye):
    X=             -2.2968    Y=             -0.0000    Z=              0.0000  Tot=              2.2968
 Quadrupole moment (field-independent basis, Debye-Ang):
   XX=            -10.6626   YY=            -24.0408   ZZ=            -24.0408
   XY=             -0.0000   XZ=              0.0000   YZ=             -0.0000

 Normal termination of Gaussian 16 at Mon Apr 21 19:24:46 2025.
