 Gaussian 16, Revision A.03,
 Gaussian 16:  ES64L-G16RevA.03 25-Dec-2016

 --------------------------------------------
 #p opt UM062X/6-311+G** nosymm int=superfine
 --------------------------------------------

 -------------------
 Title Card Required
 -------------------
 Symbolic Z-matrix:
 Charge =  0 Multiplicity = 1

 SCF Done:  E(UM062X) =  -151.529786591     A.U. after   12 cycles
 SCF Done:  E(UM062X) =  -151.530355823     A.U. after   12 cycles
 SCF Done:  E(UM062X) =  -151.530373276     A.U. after   12 cycles
 SCF Done:  E(UM062X) =  -151.530448820     A.U. after   12 cycles
 SCF Done:  E(UM062X) =  -151.530448920     A.U. after    8 cycles
 Optimization completed.
    -- Stationary point found.

                          Input orientation:
 ---------------------------------------------------------------------
 Center     Atomic      Atomic             Coordinates (Angstroms)
 Number     Number       Type             X           Y           Z
 ---------------------------------------------------------------------
      1          8           0       -0.761938    0.000000    0.000000
      2          8           0        0.761938    0.000000    0.000000
      3          1           0       -0.899365   -0.950528   -0.094836
      4          1           0        0.899404    0.509683    0.807907
 ---------------------------------------------------------------------

 Alpha  occ. eigenvalues --  -19.69667 -19.69654  -1.23643  -1.03852  -0.59541
 Alpha  occ. eigenvalues --   -0.59258  -0.50322  -0.43470  -0.37934
 Alpha virt. eigenvalues --    0.01297   0.05953   0.10961   0.16293   0.16309
 Alpha virt. eigenvalues --    0.18444   0.20742   0.20776   0.22084   0.26760
 Alpha virt. eigenvalues --    0.33526   0.50561   0.52529   0.96900   1.00287

  Beta  occ. eigenvalues --  -19.69667 -19.69654  -1.23643  -1.03852  -0.59541
  Beta  occ. eigenvalues --   -0.59258  -0.50322  -0.43470  -0.37934
  Beta virt. eigenvalues --    0.01297   0.05953   0.10961   0.16293   0.16309
  Beta virt. eigenvalues --    0.18444   0.20742   0.20776   0.22084   0.26760
  Beta virt. eigenvalues --    0.33526   0.50561   0.52529   0.96900   1.00287

 Mulliken charges and spin densities:
               1          2
     1  O   -0.273157  -0.000000
     2  O   -0.273169   0.000000
     3  H    0.273162   0.000000
     4  H    0.273164   0.000000
 Sum of Mulliken charges =  -0.00000   0.00000

 Dipole moment (field-independent basis, Debye):
    X=              0.0000    Y=             -0.8309    Z=              1.3440  Tot=              1.5801
 Quadrupole moment (field-independent basis, Debye-Ang):
   XX=            -11.7562   YY=            -10.0681   ZZ=            -11.4450
   XY=              2.8996   XZ=              1.7926   YZ=              1.3778

 Normal termination of Gaussian 16 at Mon Apr 21 21:33:23 2025.
