 Gaussian 16, Revision A.03,
 Gaussian 16:  ES64L-G16RevA.03 25-Dec-2016

 ---------------------------------------------------
 #p UM062X/6-311+G** force int=superfine pop=saveNBO
 ---------------------------------------------------

 -------------------
 Title Card Required
 -------------------
 Symbolic Z-matrix:
 Charge =  0 Multiplicity = 1

                         Standard orientation:
 ---------------------------------------------------------------------
 Center     Atomic      Atomic             Coordinates (Angstroms)
 Number     Number       Type             X           Y           Z
 ---------------------------------------------------------------------
      1          5           0       -0.000000    0.000000    0.692951
      2          7           0        0.000000   -0.000000   -0.541181
      3          1           0        0.000000    0.000000    1.858842
      4          1           0        0.000000   -0.000000   -1.535334
 ---------------------------------------------------------------------

 SCF Done:  E(UM062X) =  -80.7918984044     A.U. after   10 cycles

 The electronic state is 1-SG.
 Alpha  occ. eigenvalues --  -14.72511  -7.04844  -0.92952  -0.62468  -0.51312
 Alpha  occ. eigenvalues --   -0.36505  -0.36505
 Alpha virt. eigenvalues --    0.01220   0.02853   0.02853   0.02929   0.08557
 Alpha virt. eigenvalues --    0.08557   0.10196   0.15437   0.18881   0.18881
 Alpha virt. eigenvalues --    0.21582   0.26106   0.37897   0.43492   0.43492

  Beta  occ. eigenvalues --  -14.72511  -7.04844  -0.92952  -0.62468  -0.51312
  Beta  occ. eigenvalues --   -0.36505  -0.36505
  Beta virt. eigenvalues --    0.01220   0.02853   0.02853   0.02929   0.08557
  Beta virt. eigenvalues --    0.08557   0.10196   0.15437   0.18881   0.18881
  Beta virt. eigenvalues --    0.21582   0.26106   0.37897   0.43492   0.43492

 Mulliken charges and spin densities:
               1          2
     1  B    0.241103  -0.000000
     2  N   -0.544411   0.000000
     3  H    0.027940  -0.000000
     4  H    0.275368   0.000000
 Sum of Mulliken charges =  -0.00000  -0.00000

 Dipole moment (field-independent basis, Debye):
    X=             -0.0000    Y=             -0.0000    Z=              0.1208  Tot=              0.1208
 Quadrupole moment (field-independent basis, Debye-Ang):
   XX=            -13.2486   YY=            -13.2486   ZZ=             -7.9040
   XY=              0.0000   XZ=             -0.0000   YZ=             -0.0000

 Summary of Natural Population Analysis:

                                       Natural Population
                Natural  -----------------------------------------------
    Atom  No    Charge         Core      Valence    Rydberg      Total
 -----------------------------------------------------------------------
      B    1    0.33550      0.99933     1.16087    0.00430     2.16450
      N    2   -0.51188      0.99959     3.01048    0.00181     4.01188
      H    3   -0.02958      0.00000     0.52905    0.00052     0.52958
      H    4    0.20595      0.00000     0.29246    0.00159     0.29405
 =======================================================================
   * Total *   -0.00000      1.99893     4.99286    0.00822     7.00000

 Optimization completed.
    -- Stationary point found.

 1\1\GINC-NODE01\Force\UM062X\6-311+G(d,p)\B1H2N1\SZHAO\16-Apr-2025\0\\
 #p UM062X/6-311+G** force int=superfine pop=saveNBO\\Title Card Requir
 ed\\0,1\B,-0.617065809,-0.0001454496,0.\N,0.6170658253,0.000032378,0.\
 H,-1.7829569892,-0.0003134443,0.\H,1.6112189471,0.0001756267,0.\\Versi
 on=ES64L-G16RevA.03\State=1-SG\HF=-80.7918984\S2=0.\S2-1=0.\S2A=0.\RMS
 D=1.305e-09\RMSF=2.830e-05\Dipole=-0.0475376,-0.0000068,0.\Quadrupole=
 2.6490824,-1.3245412,-1.3245413,0.0005726,0.,0.\PG=C*V [C*(H1N1B1H1)]\
 \@

 Normal termination of Gaussian 16 at Wed Apr 16 01:33:57 2025.
