 Gaussian 16, Revision A.03,
 Gaussian 16:  ES64L-G16RevA.03 25-Dec-2016

 --------------------------------------------
 #p opt UM062X/6-311+G** nosymm int=superfine
 --------------------------------------------

 -------------------
 Title Card Required
 -------------------
 Symbolic Z-matrix:
 Charge =  0 Multiplicity = 1

 SCF Done:  E(UM062X) =  -438.476035791     A.U. after   14 cycles
 SCF Done:  E(UM062X) =  -438.489761055     A.U. after   11 cycles
 SCF Done:  E(UM062X) =  -438.496983733     A.U. after   12 cycles
 SCF Done:  E(UM062X) =  -438.497058971     A.U. after   10 cycles
 SCF Done:  E(UM062X) =  -438.497077256     A.U. after   11 cycles
 SCF Done:  E(UM062X) =  -438.497119494     A.U. after   10 cycles
 SCF Done:  E(UM062X) =  -438.497124248     A.U. after   10 cycles
 SCF Done:  E(UM062X) =  -438.497124918     A.U. after   11 cycles
 SCF Done:  E(UM062X) =  -438.497125087     A.U. after    8 cycles
 SCF Done:  E(UM062X) =  -438.497125399     A.U. after   13 cycles
 SCF Done:  E(UM062X) =  -438.497125949     A.U. after   11 cycles
 SCF Done:  E(UM062X) =  -438.497126041     A.U. after   13 cycles
 SCF Done:  E(UM062X) =  -438.497126131     A.U. after   11 cycles
 SCF Done:  E(UM062X) =  -438.497125027     A.U. after   16 cycles
 SCF Done:  E(UM062X) =  -438.497126457     A.U. after   13 cycles
 SCF Done:  E(UM062X) =  -438.497126930     A.U. after   17 cycles
 SCF Done:  E(UM062X) =  -438.497126027     A.U. after   12 cycles
 SCF Done:  E(UM062X) =  -438.497126988     A.U. after   13 cycles
 SCF Done:  E(UM062X) =  -438.497127057     A.U. after   13 cycles
 SCF Done:  E(UM062X) =  -438.497127083     A.U. after    9 cycles
 Optimization completed.
    -- Stationary point found.

                          Input orientation:
 ---------------------------------------------------------------------
 Center     Atomic      Atomic             Coordinates (Angstroms)
 Number     Number       Type             X           Y           Z
 ---------------------------------------------------------------------
      1          6           0       -2.035220    0.000000    0.000000
      2         16           0        2.035220    0.000000    0.000000
      3          1           0        1.993179   -1.342343   -0.068102
      4          1           0       -2.016730    1.080923   -0.013741
      5          1           0       -2.071876   -0.550205   -0.929978
      6          1           0       -2.068284   -0.526595    0.943684
 ---------------------------------------------------------------------

 Alpha  occ. eigenvalues --  -89.87523 -10.65144  -8.23834  -6.15875  -6.15816
 Alpha  occ. eigenvalues --   -6.15264  -0.83518  -0.75397  -0.55579  -0.55501
 Alpha  occ. eigenvalues --   -0.41941  -0.27884  -0.26367
 Alpha virt. eigenvalues --   -0.16657   0.00932   0.03674   0.04032   0.05563
 Alpha virt. eigenvalues --    0.07503   0.08417   0.08438   0.10719   0.13430
 Alpha virt. eigenvalues --    0.15459   0.15601   0.20410   0.34627   0.35572

  Beta  occ. eigenvalues --  -89.87523 -10.65144  -8.23834  -6.15875  -6.15816
  Beta  occ. eigenvalues --   -6.15264  -0.83518  -0.75397  -0.55579  -0.55501
  Beta  occ. eigenvalues --   -0.41941  -0.27884  -0.26367
  Beta virt. eigenvalues --   -0.16657   0.00932   0.03674   0.04032   0.05563
  Beta virt. eigenvalues --    0.07503   0.08417   0.08438   0.10719   0.13430
  Beta virt. eigenvalues --    0.15459   0.15601   0.20410   0.34627   0.35572

 Mulliken charges and spin densities:
               1          2
     1  C   -0.374881   0.000006
     2  S   -0.294377  -0.000006
     3  H    0.050375   0.000000
     4  H    0.208175  -0.000000
     5  H    0.205101  -0.000000
     6  H    0.205606  -0.000000
 Sum of Mulliken charges =  -0.00000   0.00000

 Dipole moment (field-independent basis, Debye):
    X=             -5.2453    Y=             -0.9545    Z=             -0.0484  Tot=              5.3317
 Quadrupole moment (field-independent basis, Debye-Ang):
   XX=            -20.9221   YY=            -19.6367   ZZ=            -23.6668
   XY=             -1.9833   XZ=             -0.1014   YZ=              0.2048

 Normal termination of Gaussian 16 at Mon Apr 21 19:42:35 2025.
