 Gaussian 16, Revision A.03,
 Gaussian 16:  ES64L-G16RevA.03 25-Dec-2016

 ---------------------------------------------------
 #p UM062X/6-311+G** force int=superfine pop=saveNBO
 ---------------------------------------------------

 -------------------
 Title Card Required
 -------------------
 Symbolic Z-matrix:
 Charge =  0 Multiplicity = 1

                         Standard orientation:
 ---------------------------------------------------------------------
 Center     Atomic      Atomic             Coordinates (Angstroms)
 Number     Number       Type             X           Y           Z
 ---------------------------------------------------------------------
      1          6           0        0.000000    0.000000   -1.584431
      2         16           0        0.000000    0.000000    0.594161
 ---------------------------------------------------------------------

 SCF Done:  E(UM062X) =  -436.030307769     A.U. after   12 cycles

 The electronic state is 1-SG.
 Alpha  occ. eigenvalues --  -89.95638 -10.77808  -8.31364  -6.23329  -6.23067
 Alpha  occ. eigenvalues --   -6.23067  -0.79752  -0.65514  -0.38020  -0.33940
 Alpha  occ. eigenvalues --   -0.33940
 Alpha virt. eigenvalues --   -0.13503  -0.13503  -0.03963   0.03766   0.05819
 Alpha virt. eigenvalues --    0.05859   0.05859   0.08664   0.09582   0.09582
 Alpha virt. eigenvalues --    0.15972   0.33552   0.35584   0.35584   0.53894

  Beta  occ. eigenvalues --  -89.95638 -10.77808  -8.31364  -6.23329  -6.23067
  Beta  occ. eigenvalues --   -6.23067  -0.79752  -0.65514  -0.38020  -0.33940
  Beta  occ. eigenvalues --   -0.33940
  Beta virt. eigenvalues --   -0.13503  -0.13503  -0.03963   0.03766   0.05819
  Beta virt. eigenvalues --    0.05859   0.05859   0.08664   0.09582   0.09582
  Beta virt. eigenvalues --    0.15972   0.33552   0.35584   0.35584   0.53894

 Mulliken charges and spin densities:
               1          2
     1  C    0.103795   0.000000
     2  S   -0.103795  -0.000000
 Sum of Mulliken charges =   0.00000  -0.00000

 Dipole moment (field-independent basis, Debye):
    X=              0.0000    Y=              0.0000    Z=             -0.8011  Tot=              0.8011
 Quadrupole moment (field-independent basis, Debye-Ang):
   XX=            -20.1136   YY=            -20.1136   ZZ=            -18.1166
   XY=              0.0000   XZ=              0.0000   YZ=              0.0000

 Summary of Natural Population Analysis:

                                       Natural Population
                Natural  -----------------------------------------------
    Atom  No    Charge         Core      Valence    Rydberg      Total
 -----------------------------------------------------------------------
      C    1    0.09239      0.99999     1.90467    0.00295     2.90761
      S    2   -0.09239      4.99995     3.08605    0.00639     8.09239
 =======================================================================
   * Total *   -0.00000      5.99993     4.99072    0.00934    11.00000

 Normal termination of Gaussian 16 at Mon Apr 21 19:40:39 2025.
