 Gaussian 16, Revision A.03,
 Gaussian 16:  ES64L-G16RevA.03 25-Dec-2016

 --------------------------------------------
 #p opt UM062X/6-311+G** nosymm int=superfine
 --------------------------------------------

 -------------------
 Title Card Required
 -------------------
 Symbolic Z-matrix:
 Charge =  0 Multiplicity = 1

 SCF Done:  E(UM062X) =  -77.2048105445     A.U. after    9 cycles
 SCF Done:  E(UM062X) =  -77.2358606253     A.U. after    9 cycles
 SCF Done:  E(UM062X) =  -77.2448542501     A.U. after    9 cycles
 SCF Done:  E(UM062X) =  -77.2448698424     A.U. after    7 cycles
 Optimization completed.
    -- Stationary point found.

                          Input orientation:
 ---------------------------------------------------------------------
 Center     Atomic      Atomic             Coordinates (Angstroms)
 Number     Number       Type             X           Y           Z
 ---------------------------------------------------------------------
      1          6           0       -0.712233    0.000000    0.000000
      2          6           0        0.712233    0.000000    0.000000
      3          1           0       -1.781590   -0.000000    0.000000
      4          1           0        1.781586   -0.000000    0.000000
 ---------------------------------------------------------------------

 Alpha  occ. eigenvalues --  -10.60821 -10.60747  -0.81017  -0.67375  -0.55768
 Alpha  occ. eigenvalues --   -0.32704  -0.32704
 Alpha virt. eigenvalues --    0.00370   0.00370   0.02176   0.02445   0.08033
 Alpha virt. eigenvalues --    0.08033   0.09348   0.12215   0.12215   0.12517
 Alpha virt. eigenvalues --    0.18459   0.23597   0.33538   0.45789   0.58455

  Beta  occ. eigenvalues --  -10.60821 -10.60747  -0.81017  -0.67375  -0.55768
  Beta  occ. eigenvalues --   -0.32704  -0.32704
  Beta virt. eigenvalues --    0.00370   0.00370   0.02176   0.02445   0.08033
  Beta virt. eigenvalues --    0.08033   0.09348   0.12215   0.12215   0.12517
  Beta virt. eigenvalues --    0.18459   0.23597   0.33538   0.45789   0.58455

 Mulliken charges and spin densities:
               1          2
     1  C   -0.213568   0.000000
     2  C   -0.213568  -0.000000
     3  H    0.213568   0.000000
     4  H    0.213567  -0.000000
 Sum of Mulliken charges =  -0.00000   0.00000

 Dipole moment (field-independent basis, Debye):
    X=             -0.0000    Y=             -0.0000    Z=              0.0000  Tot=              0.0000
 Quadrupole moment (field-independent basis, Debye-Ang):
   XX=             -6.0654   YY=            -14.8099   ZZ=            -14.8099
   XY=              0.0000   XZ=             -0.0000   YZ=             -0.0000

 Normal termination of Gaussian 16 at Tue Dec  3 20:07:29 2024.
