 Gaussian 16, Revision A.03,
 Gaussian 16:  ES64L-G16RevA.03 25-Dec-2016

 --------------------------------------------
 #p opt UM062X/6-311+G** nosymm int=superfine
 --------------------------------------------

 -------------------
 Title Card Required
 -------------------
 Symbolic Z-matrix:
 Charge =  0 Multiplicity = 1

 SCF Done:  E(UM062X) =  -77.0058743310     A.U. after   13 cycles
 SCF Done:  E(UM062X) =  -77.0053255271     A.U. after   12 cycles
 SCF Done:  E(UM062X) =  -77.0061776649     A.U. after   12 cycles
 SCF Done:  E(UM062X) =  -77.0062360040     A.U. after   12 cycles
 SCF Done:  E(UM062X) =  -77.0062360651     A.U. after   10 cycles
 Optimization completed.
    -- Stationary point found.

                          Input orientation:
 ---------------------------------------------------------------------
 Center     Atomic      Atomic             Coordinates (Angstroms)
 Number     Number       Type             X           Y           Z
 ---------------------------------------------------------------------
      1          6           0       -1.082625    0.000000    0.000000
      2          6           0        1.082625    0.000000    0.000000
      3          1           0       -1.123699    0.348052    1.061933
      4          1           0        1.123828    1.027416   -0.439588
 ---------------------------------------------------------------------

 Alpha  occ. eigenvalues --  -10.66208 -10.66198  -0.76246  -0.68629  -0.40524
 Alpha  occ. eigenvalues --   -0.37872  -0.29915
 Alpha virt. eigenvalues --   -0.09224  -0.08690  -0.00013   0.02707   0.06434
 Alpha virt. eigenvalues --    0.07655   0.08364   0.09837   0.10161   0.10426
 Alpha virt. eigenvalues --    0.15804   0.16515   0.21096   0.45791   0.47539

  Beta  occ. eigenvalues --  -10.66208 -10.66198  -0.76246  -0.68629  -0.40524
  Beta  occ. eigenvalues --   -0.37872  -0.29915
  Beta virt. eigenvalues --   -0.09224  -0.08690  -0.00013   0.02707   0.06434
  Beta virt. eigenvalues --    0.07655   0.08364   0.09837   0.10161   0.10426
  Beta virt. eigenvalues --    0.15804   0.16515   0.21096   0.45791   0.47539

 Mulliken charges and spin densities:
               1          2
     1  C   -0.140883  -0.000000
     2  C   -0.140909   0.000000
     3  H    0.140893   0.000000
     4  H    0.140899  -0.000000
 Sum of Mulliken charges =  -0.00000  -0.00000

 Dipole moment (field-independent basis, Debye):
    X=              0.0001    Y=              1.8804    Z=              0.8507  Tot=              2.0639
 Quadrupole moment (field-independent basis, Debye-Ang):
   XX=            -17.2381   YY=            -13.0030   ZZ=            -13.0946
   XY=              1.1597   XZ=             -2.5629   YZ=              0.0522

 Normal termination of Gaussian 16 at Tue Dec  3 21:26:34 2024.
