 Gaussian 16, Revision A.03,
 Gaussian 16:  ES64L-G16RevA.03 25-Dec-2016

 ---------------------------------------------------
 #p UM062X/6-311+G** force int=superfine pop=saveNBO
 ---------------------------------------------------

 -------------------
 Title Card Required
 -------------------
 Symbolic Z-matrix:
 Charge =  0 Multiplicity = 1

                         Standard orientation:
 ---------------------------------------------------------------------
 Center     Atomic      Atomic             Coordinates (Angstroms)
 Number     Number       Type             X           Y           Z
 ---------------------------------------------------------------------
      1          6           0        0.000000    0.000000   -1.641237
      2          8           0        0.000000    0.000000    1.230927
 ---------------------------------------------------------------------

 SCF Done:  E(UM062X) =  -112.771795189     A.U. after   23 cycles

 The electronic state is 1-SG.
 Alpha  occ. eigenvalues --  -19.69513 -10.77771  -1.00204  -0.69087  -0.38821
 Alpha  occ. eigenvalues --   -0.38821  -0.33018
 Alpha virt. eigenvalues --   -0.15051  -0.15051  -0.14074   0.03434   0.06566
 Alpha virt. eigenvalues --    0.06566   0.07406   0.18443   0.21181   0.21181
 Alpha virt. eigenvalues --    0.28914   0.53484   0.53484   0.55769   0.63211

  Beta  occ. eigenvalues --  -19.69513 -10.77771  -1.00204  -0.69087  -0.38821
  Beta  occ. eigenvalues --   -0.38821  -0.33018
  Beta virt. eigenvalues --   -0.15051  -0.15051  -0.14074   0.03434   0.06566
  Beta virt. eigenvalues --    0.06566   0.07406   0.18443   0.21181   0.21181
  Beta virt. eigenvalues --    0.28914   0.53484   0.53484   0.55769   0.63211

 Mulliken charges and spin densities:
               1          2
     1  C    0.207587   0.000000
     2  O   -0.207587  -0.000000
 Sum of Mulliken charges =  -0.00000  -0.00000

 Dipole moment (field-independent basis, Debye):
    X=              0.0000    Y=              0.0000    Z=             -2.9183  Tot=              2.9183
 Quadrupole moment (field-independent basis, Debye-Ang):
   XX=            -11.1811   YY=            -11.1811   ZZ=            -11.2423
   XY=              0.0000   XZ=              0.0000   YZ=              0.0000

 Summary of Natural Population Analysis:

                                       Natural Population
                Natural  -----------------------------------------------
    Atom  No    Charge         Core      Valence    Rydberg      Total
 -----------------------------------------------------------------------
      C    1    0.13142      1.00000     1.86817    0.00041     2.86858
      O    2   -0.13142      1.00000     3.13102    0.00041     4.13142
 =======================================================================
   * Total *   -0.00000      2.00000     4.99918    0.00082     7.00000

 Normal termination of Gaussian 16 at Mon Apr 21 19:28:46 2025.
