 Gaussian 16, Revision A.03,
 Gaussian 16:  ES64L-G16RevA.03 25-Dec-2016

 --------------------------------------------
 #p opt UM062X/6-311+G** nosymm int=superfine
 --------------------------------------------

 -------------------
 Title Card Required
 -------------------
 Symbolic Z-matrix:
 Charge =  0 Multiplicity = 1

 SCF Done:  E(UM062X) =  -579.898804338     A.U. after    9 cycles
 SCF Done:  E(UM062X) =  -579.902391075     A.U. after   10 cycles
 SCF Done:  E(UM062X) =  -579.902406258     A.U. after    7 cycles
 Optimization completed.
    -- Stationary point found.

                          Input orientation:
 ---------------------------------------------------------------------
 Center     Atomic      Atomic             Coordinates (Angstroms)
 Number     Number       Type             X           Y           Z
 ---------------------------------------------------------------------
      1         14           0       -1.653705    0.000000    0.000000
      2         14           0        1.653705    0.000000    0.000000
      3          1           0       -3.188690    0.000012    0.000000
      4          1           0        3.188690    0.000080   -0.000000
 ---------------------------------------------------------------------

 Alpha  occ. eigenvalues --  -67.04340 -67.04340  -5.58759  -5.58758  -3.89839
 Alpha  occ. eigenvalues --   -3.89839  -3.89395  -3.89394  -3.89283  -3.89283
 Alpha  occ. eigenvalues --   -0.55291  -0.53943  -0.36091  -0.28653  -0.19458
 Alpha virt. eigenvalues --   -0.10134  -0.08989  -0.07284   0.02251   0.03024
 Alpha virt. eigenvalues --    0.04478   0.04951   0.05678   0.06117   0.07113
 Alpha virt. eigenvalues --    0.09079   0.09999   0.20955   0.29298   0.29661

  Beta  occ. eigenvalues --  -67.04340 -67.04340  -5.58759  -5.58758  -3.89839
  Beta  occ. eigenvalues --   -3.89839  -3.89395  -3.89394  -3.89283  -3.89283
  Beta  occ. eigenvalues --   -0.55291  -0.53943  -0.36091  -0.28653  -0.19458
  Beta virt. eigenvalues --   -0.10134  -0.08989  -0.07284   0.02251   0.03024
  Beta virt. eigenvalues --    0.04478   0.04951   0.05678   0.06117   0.07113
  Beta virt. eigenvalues --    0.09079   0.09999   0.20955   0.29298   0.29661

 Mulliken charges and spin densities:
               1          2
     1  Si   0.142215  -0.000000
     2  Si   0.142214   0.000000
     3  H   -0.142215   0.000000
     4  H   -0.142215  -0.000000
 Sum of Mulliken charges =  -0.00000  -0.00000

 Dipole moment (field-independent basis, Debye):
    X=             -0.0000    Y=              0.0000    Z=              0.0000  Tot=              0.0000
 Quadrupole moment (field-independent basis, Debye-Ang):
   XX=            -32.0963   YY=            -24.1372   ZZ=            -35.3240
   XY=             -0.0002   XZ=              0.0000   YZ=             -0.0005

 Normal termination of Gaussian 16 at Mon Apr 21 21:24:08 2025.
