 Gaussian 16, Revision A.03,
 Gaussian 16:  ES64L-G16RevA.03 25-Dec-2016

 --------------------------------------------
 #p opt UM062X/6-311+G** nosymm int=superfine
 --------------------------------------------

 -------------------
 Title Card Required
 -------------------
 Symbolic Z-matrix:
 Charge =  0 Multiplicity = 1

 SCF Done:  E(UM062X) =  -51.8291944181     A.U. after    9 cycles
 SCF Done:  E(UM062X) =  -51.8337839840     A.U. after    8 cycles
 SCF Done:  E(UM062X) =  -51.8361624632     A.U. after   10 cycles
 SCF Done:  E(UM062X) =  -51.8361639076     A.U. after    9 cycles
 SCF Done:  E(UM062X) =  -51.8361332865     A.U. after    9 cycles
 SCF Done:  E(UM062X) =  -51.8361642021     A.U. after    9 cycles
 Optimization completed.
    -- Stationary point found.

                          Input orientation:
 ---------------------------------------------------------------------
 Center     Atomic      Atomic             Coordinates (Angstroms)
 Number     Number       Type             X           Y           Z
 ---------------------------------------------------------------------
      1          5           0       -1.720607    0.000000    0.000000
      2          5           0        1.720607    0.000000    0.000000
      3          1           0       -2.202507   -1.077196   -0.000169
      4          1           0        2.202507    1.077180   -0.005938
      5          1           0       -2.202508    1.077195    0.000696
      6          1           0        2.202508   -1.077176    0.006438
 ---------------------------------------------------------------------

 Alpha  occ. eigenvalues --   -7.10977  -7.10975  -0.57661  -0.57030  -0.44540
 Alpha  occ. eigenvalues --   -0.44295  -0.21892
 Alpha virt. eigenvalues --   -0.05253  -0.04451  -0.03249   0.02309   0.03524
 Alpha virt. eigenvalues --    0.03856   0.05620   0.06280   0.07457   0.07928
 Alpha virt. eigenvalues --    0.10238   0.15687   0.16697   0.17201   0.25129

  Beta  occ. eigenvalues --   -7.10977  -7.10975  -0.57661  -0.57030  -0.44540
  Beta  occ. eigenvalues --   -0.44295  -0.21892
  Beta virt. eigenvalues --   -0.05253  -0.04451  -0.03249   0.02309   0.03524
  Beta virt. eigenvalues --    0.03856   0.05620   0.06280   0.07457   0.07928
  Beta virt. eigenvalues --    0.10238   0.15687   0.16697   0.17201   0.25129

 Mulliken charges and spin densities:
               1          2
     1  B   -0.052422  -0.000000
     2  B   -0.052422   0.000000
     3  H    0.026211  -0.000000
     4  H    0.026211   0.000000
     5  H    0.026211  -0.000000
     6  H    0.026211   0.000000
 Sum of Mulliken charges =  -0.00000  -0.00000

 Dipole moment (field-independent basis, Debye):
    X=              0.0000    Y=              0.0000    Z=              0.0003  Tot=              0.0003
 Quadrupole moment (field-independent basis, Debye-Ang):
   XX=            -12.8378   YY=            -16.9131   ZZ=            -14.2940
   XY=             -0.0000   XZ=              0.0000   YZ=              0.0070

 Normal termination of Gaussian 16 at Mon Apr 21 17:12:01 2025.
