 Gaussian 16, Revision A.03,
 Gaussian 16:  ES64L-G16RevA.03 25-Dec-2016

 --------------------------------------------
 #p opt UM062X/6-311+G** nosymm int=superfine
 --------------------------------------------

 -------------------
 Title Card Required
 -------------------
 Symbolic Z-matrix:
 Charge =  1 Multiplicity = 2

 SCF Done:  E(UM062X) =  -580.941205916     A.U. after   11 cycles
 SCF Done:  E(UM062X) =  -580.941432133     A.U. after    8 cycles
 SCF Done:  E(UM062X) =  -580.941506311     A.U. after   10 cycles
 SCF Done:  E(UM062X) =  -580.941336697     A.U. after   10 cycles
 SCF Done:  E(UM062X) =  -580.941475945     A.U. after   10 cycles
 SCF Done:  E(UM062X) =  -580.941504526     A.U. after    9 cycles
 SCF Done:  E(UM062X) =  -580.941506240     A.U. after    7 cycles
 SCF Done:  E(UM062X) =  -580.941508708     A.U. after    9 cycles
 SCF Done:  E(UM062X) =  -580.941508719     A.U. after    6 cycles
 Optimization completed.
    -- Stationary point found.

                          Input orientation:
 ---------------------------------------------------------------------
 Center     Atomic      Atomic             Coordinates (Angstroms)
 Number     Number       Type             X           Y           Z
 ---------------------------------------------------------------------
      1         14           0       -1.391295    0.000000    0.000000
      2         14           0        1.391295    0.000000    0.000000
      3          1           0       -2.087466   -1.291649   -0.000154
      4          1           0        2.087465    1.291649    0.001066
      5          1           0       -2.087468    1.291647    0.000239
      6          1           0        2.087469   -1.291647   -0.001042
 ---------------------------------------------------------------------

 Alpha  occ. eigenvalues --  -67.26618 -67.26618  -5.80989  -5.80987  -4.12649
 Alpha  occ. eigenvalues --   -4.12648  -4.11945  -4.11936  -4.11815  -4.11814
 Alpha  occ. eigenvalues --   -0.82961  -0.79096  -0.64436  -0.63354  -0.55275
 Alpha  occ. eigenvalues --   -0.44067
 Alpha virt. eigenvalues --   -0.29471  -0.25019  -0.14696  -0.13435  -0.11355
 Alpha virt. eigenvalues --   -0.10959  -0.09279  -0.08968  -0.07993  -0.07221
 Alpha virt. eigenvalues --   -0.06977  -0.05707  -0.01536   0.02628   0.11645

  Beta  occ. eigenvalues --  -67.26328 -67.26328  -5.80904  -5.80903  -4.11938
  Beta  occ. eigenvalues --   -4.11936  -4.11879  -4.11869  -4.11709  -4.11708
  Beta  occ. eigenvalues --   -0.80973  -0.77677  -0.64379  -0.63446  -0.54544
  Beta virt. eigenvalues --   -0.29684  -0.24245  -0.22701  -0.14868  -0.14187
  Beta virt. eigenvalues --   -0.12002  -0.11099  -0.09322  -0.09056  -0.07554
  Beta virt. eigenvalues --   -0.06872  -0.06667  -0.03880  -0.03123   0.02466

 Mulliken charges and spin densities:
               1          2
     1  Si   0.436022   0.553976
     2  Si   0.436021   0.553976
     3  H    0.031989  -0.026988
     4  H    0.031989  -0.026988
     5  H    0.031989  -0.026988
     6  H    0.031989  -0.026988
 Sum of Mulliken charges =   1.00000   1.00000

 Dipole moment (field-independent basis, Debye):
    X=             -0.0000    Y=             -0.0000    Z=             -0.0000  Tot=              0.0000
 Quadrupole moment (field-independent basis, Debye-Ang):
   XX=            -10.2981   YY=            -23.5814   ZZ=            -24.4428
   XY=             -0.0000   XZ=              0.0000   YZ=              0.0004

 Normal termination of Gaussian 16 at Mon Apr 21 20:24:12 2025.
