 Gaussian 16, Revision A.03,
 Gaussian 16:  ES64L-G16RevA.03 25-Dec-2016

 ---------------------------------------------------
 #p UM062X/6-311+G** force int=superfine pop=saveNBO
 ---------------------------------------------------

 -------------------
 Title Card Required
 -------------------
 Symbolic Z-matrix:
 Charge =  0 Multiplicity = 1

                         Standard orientation:
 ---------------------------------------------------------------------
 Center     Atomic      Atomic             Coordinates (Angstroms)
 Number     Number       Type             X           Y           Z
 ---------------------------------------------------------------------
      1          8           0        0.000000    0.000000   -2.826757
      2         16           0        0.000000    0.000000    1.413379
 ---------------------------------------------------------------------

 SCF Done:  E(UM062X) =  -473.003491210     A.U. after   18 cycles

 Unable to determine electronic state:  partially filled degenerate orbitals.
 Alpha  occ. eigenvalues --  -89.96823 -19.77115  -8.32881  -6.25680  -6.24083
 Alpha  occ. eigenvalues --   -6.24070  -1.06809  -0.76964  -0.45698  -0.45686
 Alpha  occ. eigenvalues --   -0.34221  -0.34147
 Alpha virt. eigenvalues --   -0.19710  -0.19376   0.03591   0.04797   0.05663
 Alpha virt. eigenvalues --    0.05691   0.14323   0.17602   0.17751   0.21518
 Alpha virt. eigenvalues --    0.33855   0.35054   0.35794   0.59129   0.77669

  Beta  occ. eigenvalues --  -89.96823 -19.77115  -8.32881  -6.25680  -6.24083
  Beta  occ. eigenvalues --   -6.24070  -1.06809  -0.76964  -0.45698  -0.45686
  Beta  occ. eigenvalues --   -0.34221  -0.34147
  Beta virt. eigenvalues --   -0.19710  -0.19376   0.03591   0.04797   0.05663
  Beta virt. eigenvalues --    0.05691   0.14323   0.17602   0.17751   0.21518
  Beta virt. eigenvalues --    0.33855   0.35054   0.35794   0.59129   0.77669

 Mulliken charges and spin densities:
               1          2
     1  O   -0.005991   0.000000
     2  S    0.005991   0.000000
 Sum of Mulliken charges =  -0.00000   0.00000

 Dipole moment (field-independent basis, Debye):
    X=              0.0000    Y=              0.0000    Z=              0.1961  Tot=              0.1961
 Quadrupole moment (field-independent basis, Debye-Ang):
   XX=            -15.6839   YY=            -21.1532   ZZ=            -19.0105
   XY=              0.0000   XZ=              0.0000   YZ=              0.0000

 Summary of Natural Population Analysis:

                                       Natural Population
                Natural  -----------------------------------------------
    Atom  No    Charge         Core      Valence    Rydberg      Total
 -----------------------------------------------------------------------
      O    1   -0.00347      1.00000     3.00334    0.00013     4.00347
      S    2    0.00347      4.99999     2.99610    0.00044     7.99653
 =======================================================================
   * Total *   -0.00000      5.99999     5.99944    0.00057    12.00000

 Normal termination of Gaussian 16 at Mon Apr 21 20:00:38 2025.
