 Gaussian 16, Revision A.03,
 Gaussian 16:  ES64L-G16RevA.03 25-Dec-2016

 --------------------------------------------
 #p opt UM062X/6-311+G** nosymm int=superfine
 --------------------------------------------

 -------------------
 Title Card Required
 -------------------
 Symbolic Z-matrix:
 Charge =  1 Multiplicity = 2

 SCF Done:  E(UM062X) =  -92.5778082753     A.U. after   19 cycles
 SCF Done:  E(UM062X) =  -92.5780842973     A.U. after   12 cycles
 Optimization completed.
    -- Stationary point found.

                          Input orientation:
 ---------------------------------------------------------------------
 Center     Atomic      Atomic             Coordinates (Angstroms)
 Number     Number       Type             X           Y           Z
 ---------------------------------------------------------------------
      1          6           0       -1.651540    0.000000    0.000000
      2          7           0        1.651540    0.000000    0.000000
      3          1           0       -2.766895    0.000000    0.000000
 ---------------------------------------------------------------------

 Alpha  occ. eigenvalues --  -15.24385 -10.97204  -1.19464  -0.98421  -0.74351
 Alpha  occ. eigenvalues --   -0.71704  -0.65427
 Alpha virt. eigenvalues --   -0.44546  -0.34055  -0.32324  -0.13731  -0.09877
 Alpha virt. eigenvalues --   -0.08039  -0.07351  -0.04608  -0.02624  -0.02063
 Alpha virt. eigenvalues --   -0.00996   0.07732   0.25388   0.34937   0.35101

  Beta  occ. eigenvalues --  -15.21643 -10.97659  -1.06878  -1.00938  -0.66984
  Beta  occ. eigenvalues --   -0.52096
  Beta virt. eigenvalues --   -0.43113  -0.40576  -0.36433  -0.35618  -0.13524
  Beta virt. eigenvalues --   -0.10583  -0.08517  -0.08008  -0.04971  -0.02810
  Beta virt. eigenvalues --   -0.02233  -0.01988   0.05894   0.25924   0.34399

 Mulliken charges and spin densities:
               1          2
     1  C    0.233045  -0.545693
     2  N    0.509134   1.529111
     3  H    0.257821   0.016582
 Sum of Mulliken charges =   1.00000   1.00000

 Dipole moment (field-independent basis, Debye):
    X=             -2.2102    Y=              0.0000    Z=              0.0000  Tot=              2.2102
 Quadrupole moment (field-independent basis, Debye-Ang):
   XX=             12.1594   YY=            -10.2009   ZZ=            -10.5395
   XY=              0.0000   XZ=              0.0000   YZ=             -0.9130

 Normal termination of Gaussian 16 at Mon Apr 21 18:36:37 2025.
