 Gaussian 16, Revision A.03,
 Gaussian 16:  ES64L-G16RevA.03 25-Dec-2016

 ---------------------------------------------------------
 #p opt UM062X/6-311+G** nosymm int=superfine SCF=NoVarAcc
 ---------------------------------------------------------

 -------------------
 Title Card Required
 -------------------
 Symbolic Z-matrix:
 Charge =  0 Multiplicity = 1

 SCF Done:  E(UM062X) =  -78.2065385565     A.U. after    9 cycles
 SCF Done:  E(UM062X) =  -78.2230970307     A.U. after    9 cycles
 SCF Done:  E(UM062X) =  -78.2374075088     A.U. after    8 cycles
 SCF Done:  E(UM062X) =  -78.2376716230     A.U. after    8 cycles
 Optimization completed.
    -- Stationary point found.

                          Input orientation:
 ---------------------------------------------------------------------
 Center     Atomic      Atomic             Coordinates (Angstroms)
 Number     Number       Type             X           Y           Z
 ---------------------------------------------------------------------
      1          6           0       -7.035595    0.000000    0.000000
      2          6           0        7.035595    0.000000    0.000000
      3          1           0       -7.734095   -0.861057   -0.000000
      4          1           0       -7.734066    0.861074   -0.000000
      5          1           0        7.734095    0.861057   -0.000000
      6          1           0        7.734066   -0.861074   -0.000000
 ---------------------------------------------------------------------

 Alpha  occ. eigenvalues --  -10.60815 -10.60815  -0.75739  -0.75739  -0.47621
 Alpha  occ. eigenvalues --   -0.47621  -0.31440  -0.31440
 Alpha virt. eigenvalues --   -0.08258  -0.08258   0.02365   0.02366   0.06603
 Alpha virt. eigenvalues --    0.06603   0.08546   0.08546   0.09197   0.09198
 Alpha virt. eigenvalues --    0.17620   0.17620   0.19495   0.19495   0.44122

  Beta  occ. eigenvalues --  -10.60815 -10.60815  -0.75739  -0.75739  -0.47621
  Beta  occ. eigenvalues --   -0.47621  -0.31440  -0.31440
  Beta virt. eigenvalues --   -0.08258  -0.08258   0.02365   0.02366   0.06603
  Beta virt. eigenvalues --    0.06603   0.08546   0.08546   0.09197   0.09198
  Beta virt. eigenvalues --    0.17620   0.17620   0.19495   0.19495   0.44122

 Mulliken charges and spin densities:
               1          2
     1  C   -0.254688   0.000000
     2  C   -0.254688  -0.000000
     3  H    0.127343  -0.000000
     4  H    0.127344  -0.000000
     5  H    0.127343   0.000000
     6  H    0.127344   0.000000
 Sum of Mulliken charges =  -0.00000  -0.00000

 Dipole moment (field-independent basis, Debye):
    X=             -0.0000    Y=              0.0000    Z=             -0.0000  Tot=              0.0000
 Quadrupole moment (field-independent basis, Debye-Ang):
   XX=             40.5967   YY=            -14.4539   ZZ=            -12.8729
   XY=             -0.0004   XZ=             -0.0000   YZ=             -0.0000

 Normal termination of Gaussian 16 at Tue Dec  3 17:41:29 2024.
