 Gaussian 16, Revision A.03,
 Gaussian 16:  ES64L-G16RevA.03 25-Dec-2016

 -------------------------------------------------------------------
 #p opt UM062X/6-311+G** nosymm int=superfine SCF=NoVarAcc SCF=tight
 -------------------------------------------------------------------

 -------------------
 Title Card Required
 -------------------
 Symbolic Z-matrix:
 Charge =  1 Multiplicity = 2

 SCF Done:  E(UM062X) =  -77.9182480332     A.U. after   10 cycles
 SCF Done:  E(UM062X) =  -77.9225557107     A.U. after    9 cycles
 SCF Done:  E(UM062X) =  -77.9251751938     A.U. after    9 cycles
 SCF Done:  E(UM062X) =  -77.9251788328     A.U. after    7 cycles
 Optimization completed.
    -- Stationary point found.

                          Input orientation:
 ---------------------------------------------------------------------
 Center     Atomic      Atomic             Coordinates (Angstroms)
 Number     Number       Type             X           Y           Z
 ---------------------------------------------------------------------
      1          6           0       -1.601027    0.000000    0.000000
      2          6           0        1.601027    0.000000    0.000000
      3          1           0       -2.161169   -0.940859   -0.000000
      4          1           0       -2.161118    0.940889   -0.000000
      5          1           0        2.161169    0.940859    0.000000
      6          1           0        2.161118   -0.940889    0.000000
 ---------------------------------------------------------------------

 Alpha  occ. eigenvalues --  -10.89222 -10.89222  -1.00624  -1.00270  -0.75181
 Alpha  occ. eigenvalues --   -0.74994  -0.60389  -0.55829
 Alpha virt. eigenvalues --   -0.32821  -0.31765  -0.13175  -0.10963  -0.09665
 Alpha virt. eigenvalues --   -0.07593  -0.06836  -0.05372  -0.04548  -0.01827
 Alpha virt. eigenvalues --   -0.01041  -0.00228   0.01961   0.06991   0.24421

  Beta  occ. eigenvalues --  -10.88368 -10.88366  -0.98425  -0.97930  -0.74160
  Beta  occ. eigenvalues --   -0.73950  -0.50308
  Beta virt. eigenvalues --   -0.33922  -0.30966  -0.29684  -0.13031  -0.11051
  Beta virt. eigenvalues --   -0.09546  -0.07421  -0.06811  -0.04709  -0.04151
  Beta virt. eigenvalues --   -0.01557  -0.00495   0.00126   0.02000   0.07733

 Mulliken charges and spin densities:
               1          2
     1  C    0.016063   0.485620
     2  C    0.016063   0.485620
     3  H    0.241969   0.007190
     4  H    0.241968   0.007190
     5  H    0.241969   0.007190
     6  H    0.241968   0.007190
 Sum of Mulliken charges =   1.00000   1.00000

 Dipole moment (field-independent basis, Debye):
    X=             -0.0000    Y=             -0.0000    Z=              0.0000  Tot=              0.0000
 Quadrupole moment (field-independent basis, Debye-Ang):
   XX=             10.4155   YY=             -9.4369   ZZ=            -10.7262
   XY=             -0.0000   XZ=              0.0000   YZ=              0.0000

 Normal termination of Gaussian 16 at Tue Dec  3 14:45:23 2024.
