 Gaussian 16, Revision A.03,
 Gaussian 16:  ES64L-G16RevA.03 25-Dec-2016

 --------------------------------------------
 #p opt UM062X/6-311+G** nosymm int=superfine
 --------------------------------------------

 -------------------
 Title Card Required
 -------------------
 Symbolic Z-matrix:
 Charge =  1 Multiplicity = 2

 SCF Done:  E(UM062X) =  -582.127289999     A.U. after   11 cycles
 SCF Done:  E(UM062X) =  -582.128127618     A.U. after    9 cycles
 SCF Done:  E(UM062X) =  -582.128513532     A.U. after   10 cycles
 SCF Done:  E(UM062X) =  -582.128515682     A.U. after    9 cycles
 Optimization completed.
    -- Stationary point found.

                          Input orientation:
 ---------------------------------------------------------------------
 Center     Atomic      Atomic             Coordinates (Angstroms)
 Number     Number       Type             X           Y           Z
 ---------------------------------------------------------------------
      1         14           0       -2.776292    0.000000    0.000000
      2         14           0        2.776292    0.000000    0.000000
      3          1           0        2.864484   -1.461255   -0.000024
      4          1           0       -2.863695   -0.730488    1.265614
      5          1           0        2.864247    0.730672   -1.265469
      6          1           0        2.863467    0.730571    1.265582
      7          1           0       -2.864512    1.461253   -0.000154
      8          1           0       -2.863991   -0.730757   -1.265438
 ---------------------------------------------------------------------

 Alpha  occ. eigenvalues --  -67.21399 -67.21399  -5.76267  -5.76267  -4.07966
 Alpha  occ. eigenvalues --   -4.07966  -4.07145  -4.07145  -4.07144  -4.07144
 Alpha  occ. eigenvalues --   -0.80043  -0.79893  -0.60538  -0.60537  -0.60520
 Alpha  occ. eigenvalues --   -0.60519  -0.37577
 Alpha virt. eigenvalues --   -0.30611  -0.11237  -0.11223  -0.09566  -0.08622
 Alpha virt. eigenvalues --   -0.08621  -0.07556  -0.07556  -0.07400  -0.06709
 Alpha virt. eigenvalues --   -0.06709  -0.05847  -0.05846  -0.04904  -0.00107

  Beta  occ. eigenvalues --  -67.21111 -67.21111  -5.76181  -5.76181  -4.07289
  Beta  occ. eigenvalues --   -4.07289  -4.07045  -4.07045  -4.07045  -4.07045
  Beta  occ. eigenvalues --   -0.78301  -0.78258  -0.60466  -0.60465  -0.60449
  Beta  occ. eigenvalues --   -0.60448
  Beta virt. eigenvalues --   -0.28780  -0.23646  -0.15438  -0.10489  -0.10487
  Beta virt. eigenvalues --   -0.10354  -0.09609  -0.08169  -0.08168  -0.07441
  Beta virt. eigenvalues --   -0.06104  -0.06104  -0.05290  -0.05289  -0.05129

 Mulliken charges and spin densities:
               1          2
     1  Si   0.524779   0.568161
     2  Si   0.524779   0.568161
     3  H   -0.008254  -0.022718
     4  H   -0.008264  -0.022721
     5  H   -0.008258  -0.022723
     6  H   -0.008267  -0.022720
     7  H   -0.008254  -0.022718
     8  H   -0.008261  -0.022722
 Sum of Mulliken charges =   1.00000   1.00000

 Dipole moment (field-independent basis, Debye):
    X=              0.0000    Y=             -0.0000    Z=              0.0000  Tot=              0.0000
 Quadrupole moment (field-independent basis, Debye-Ang):
   XX=             15.5631   YY=            -26.2428   ZZ=            -26.2426
   XY=              0.0008   XZ=              0.0000   YZ=             -0.0000

 Normal termination of Gaussian 16 at Mon Apr 21 20:13:01 2025.
