 Gaussian 16, Revision A.03,
 Gaussian 16:  ES64L-G16RevA.03 25-Dec-2016

 ---------------------------------------
 #p UM062X/6-311+G** force int=superfine
 ---------------------------------------

 -------------------
 Title Card Required
 -------------------
 Symbolic Z-matrix:
 Charge =  1 Multiplicity = 2

                         Standard orientation:
 ---------------------------------------------------------------------
 Center     Atomic      Atomic             Coordinates (Angstroms)
 Number     Number       Type             X           Y           Z
 ---------------------------------------------------------------------
      1          7           0        0.000000    0.000000    1.880391
      2          7           0        0.000000    0.000000   -1.880391
 ---------------------------------------------------------------------

 SCF Done:  E(UM062X) =  -108.330753677     A.U. after   10 cycles

 Unable to determine electronic state:  partially filled degenerate orbitals.
 Alpha  occ. eigenvalues --  -15.30372 -15.30369  -1.19091  -1.18628  -0.64665
 Alpha  occ. eigenvalues --   -0.62800  -0.62036
 Alpha virt. eigenvalues --   -0.57064  -0.54423  -0.53851  -0.12940  -0.08016
 Alpha virt. eigenvalues --   -0.07606  -0.07439  -0.04362  -0.02926  -0.02740
 Alpha virt. eigenvalues --    0.03526   0.51860   0.52963   0.53067   0.54230

  Beta  occ. eigenvalues --  -15.29883 -15.29881  -1.15353  -1.14960  -0.61042
  Beta  occ. eigenvalues --   -0.60259
  Beta virt. eigenvalues --   -0.52632  -0.51994  -0.43291  -0.43045  -0.13726
  Beta virt. eigenvalues --   -0.08834  -0.07771  -0.07468  -0.04572  -0.03239
  Beta virt. eigenvalues --   -0.02954   0.02466   0.52858   0.53218   0.54260

 Mulliken charges and spin densities:
               1          2
     1  N    0.500000   0.500000
     2  N    0.500000   0.500000
 Sum of Mulliken charges =   1.00000   1.00000

 Dipole moment (field-independent basis, Debye):
    X=              0.0000    Y=             -0.0000    Z=              0.0000  Tot=              0.0000
 Quadrupole moment (field-independent basis, Debye-Ang):
   XX=            -10.0024   YY=             -8.5616   ZZ=              8.3256
   XY=             -0.0000   XZ=             -0.0000   YZ=             -0.0000

 Optimization completed.
    -- Stationary point found.
 Normal termination of Gaussian 16 at Wed Feb 26 14:02:00 2025.
