 Gaussian 16, Revision A.03,
 Gaussian 16:  ES64L-G16RevA.03 25-Dec-2016

 --------------------------------------------
 #p opt UM062X/6-311+G** nosymm int=superfine
 --------------------------------------------

 -------------------
 Title Card Required
 -------------------
 Symbolic Z-matrix:
 Charge =  0 Multiplicity = 1

 SCF Done:  E(UM062X) =  -78.2896685552     A.U. after    8 cycles
 SCF Done:  E(UM062X) =  -78.2898230832     A.U. after    8 cycles
 SCF Done:  E(UM062X) =  -78.2898877600     A.U. after    7 cycles
 Optimization completed.
    -- Stationary point found.

                          Input orientation:
 ---------------------------------------------------------------------
 Center     Atomic      Atomic             Coordinates (Angstroms)
 Number     Number       Type             X           Y           Z
 ---------------------------------------------------------------------
      1          6           0       -1.160595    0.000000    0.000000
      2          6           0        1.160595    0.000000    0.000000
      3          1           0       -1.589997   -0.988306    0.000000
      4          1           0       -1.589996    0.988303    0.000000
      5          1           0        1.589997    0.988306   -0.000000
      6          1           0        1.589996   -0.988303   -0.000000
 ---------------------------------------------------------------------

 Alpha  occ. eigenvalues --  -10.62302 -10.62294  -0.76408  -0.72858  -0.53290
 Alpha  occ. eigenvalues --   -0.51601  -0.34119  -0.24611
 Alpha virt. eigenvalues --   -0.09001  -0.02646   0.03370   0.05343   0.06122
 Alpha virt. eigenvalues --    0.07113   0.09348   0.10074   0.11224   0.14786
 Alpha virt. eigenvalues --    0.16319   0.19492   0.21457   0.27511   0.39221

  Beta  occ. eigenvalues --  -10.62302 -10.62294  -0.76408  -0.72858  -0.53290
  Beta  occ. eigenvalues --   -0.51601  -0.34119  -0.24611
  Beta virt. eigenvalues --   -0.09001  -0.02646   0.03370   0.05343   0.06122
  Beta virt. eigenvalues --    0.07113   0.09348   0.10074   0.11224   0.14786
  Beta virt. eigenvalues --    0.16319   0.19492   0.21457   0.27511   0.39221

 Mulliken charges and spin densities:
               1          2
     1  C   -0.375179   0.000000
     2  C   -0.375182  -0.000000
     3  H    0.187591   0.000000
     4  H    0.187590   0.000000
     5  H    0.187591  -0.000000
     6  H    0.187590  -0.000000
 Sum of Mulliken charges =  -0.00000  -0.00000

 Dipole moment (field-independent basis, Debye):
    X=             -0.0000    Y=              0.0000    Z=              0.0000  Tot=              0.0000
 Quadrupole moment (field-independent basis, Debye-Ang):
   XX=            -10.6452   YY=            -11.9672   ZZ=            -18.6978
   XY=              0.0000   XZ=             -0.0000   YZ=              0.0000

 Normal termination of Gaussian 16 at Tue Dec  3 11:05:11 2024.
