 Gaussian 16, Revision A.03,
 Gaussian 16:  ES64L-G16RevA.03 25-Dec-2016

 --------------------------------------------
 #p opt UM062X/6-311+G** nosymm int=superfine
 --------------------------------------------

 -------------------
 Title Card Required
 -------------------
 Symbolic Z-matrix:
 Charge = -1 Multiplicity = 2

 SCF Done:  E(UM062X) =  -50.6687221532     A.U. after   11 cycles
 SCF Done:  E(UM062X) =  -50.6687268093     A.U. after    7 cycles
 Optimization completed.
    -- Stationary point found.

                          Input orientation:
 ---------------------------------------------------------------------
 Center     Atomic      Atomic             Coordinates (Angstroms)
 Number     Number       Type             X           Y           Z
 ---------------------------------------------------------------------
      1          5           0       -1.041404    0.000000    0.000000
      2          5           0        1.041404    0.000000    0.000000
      3          1           0       -2.222925   -0.000903    0.000000
      4          1           0        2.222925    0.000903   -0.000000
 ---------------------------------------------------------------------

 Alpha  occ. eigenvalues --   -6.90222  -6.90204  -0.36581  -0.33714  -0.17948
 Alpha  occ. eigenvalues --   -0.01899  -0.00613
 Alpha virt. eigenvalues --    0.13917   0.15353   0.15788   0.16041   0.20261
 Alpha virt. eigenvalues --    0.21372   0.21551   0.22238   0.23466   0.23738
 Alpha virt. eigenvalues --    0.26842   0.38155   0.42680   0.56201   0.59099

  Beta  occ. eigenvalues --   -6.90178  -6.90166  -0.34745  -0.32801  -0.16820
  Beta  occ. eigenvalues --    0.01148
  Beta virt. eigenvalues --    0.10673   0.14014   0.14288   0.15468   0.16691
  Beta virt. eigenvalues --    0.19125   0.20736   0.20894   0.21571   0.25097
  Beta virt. eigenvalues --    0.26227   0.26745   0.38394   0.43030   0.55958

 Mulliken charges and spin densities:
               1          2
     1  B   -0.509242   0.525873
     2  B   -0.509243   0.525874
     3  H    0.009243  -0.025874
     4  H    0.009243  -0.025874
 Sum of Mulliken charges =  -1.00000   1.00000

 Dipole moment (field-independent basis, Debye):
    X=             -0.0000    Y=              0.0000    Z=             -0.0000  Tot=              0.0000
 Quadrupole moment (field-independent basis, Debye-Ang):
   XX=            -23.3728   YY=            -30.1681   ZZ=            -23.0659
   XY=              0.0067   XZ=             -0.0000   YZ=              0.0000

 Normal termination of Gaussian 16 at Mon Apr 21 17:28:24 2025.
