 Gaussian 16, Revision A.03,
 Gaussian 16:  ES64L-G16RevA.03 25-Dec-2016

 --------------------------------------------
 #p opt UM062X/6-311+G** nosymm int=superfine
 --------------------------------------------

 -------------------
 Title Card Required
 -------------------
 Symbolic Z-matrix:
 Charge =  1 Multiplicity = 2

 SCF Done:  E(UM062X) =  -579.689176493     A.U. after   15 cycles
 SCF Done:  E(UM062X) =  -579.693414129     A.U. after   13 cycles
 SCF Done:  E(UM062X) =  -579.698473890     A.U. after   15 cycles
 SCF Done:  E(UM062X) =  -579.698593365     A.U. after   12 cycles
 SCF Done:  E(UM062X) =  -579.698661751     A.U. after   12 cycles
 SCF Done:  E(UM062X) =  -579.698707033     A.U. after   12 cycles
 SCF Done:  E(UM062X) =  -579.698749083     A.U. after   12 cycles
 SCF Done:  E(UM062X) =  -579.698767895     A.U. after   12 cycles
 SCF Done:  E(UM062X) =  -579.698771721     A.U. after   10 cycles
 SCF Done:  E(UM062X) =  -579.698771834     A.U. after    9 cycles
 Optimization completed.
    -- Stationary point found.

                          Input orientation:
 ---------------------------------------------------------------------
 Center     Atomic      Atomic             Coordinates (Angstroms)
 Number     Number       Type             X           Y           Z
 ---------------------------------------------------------------------
      1         14           0       -1.752975    0.000000    0.000000
      2         14           0        1.752975    0.000000    0.000000
      3          1           0       -1.925649   -1.495856   -0.000002
      4          1           0        1.925562    1.495860   -0.000002
 ---------------------------------------------------------------------

 Alpha  occ. eigenvalues --  -67.27166 -67.27165  -5.81335  -5.81335  -4.12446
 Alpha  occ. eigenvalues --   -4.12446  -4.12371  -4.12371  -4.11711  -4.11711
 Alpha  occ. eigenvalues --   -0.77134  -0.75374  -0.53466  -0.53000  -0.43763
 Alpha virt. eigenvalues --   -0.29206  -0.26830  -0.26577  -0.11724  -0.10240
 Alpha virt. eigenvalues --   -0.08952  -0.08636  -0.08182  -0.07295  -0.05765
 Alpha virt. eigenvalues --   -0.05728  -0.05633  -0.02957   0.12524   0.14074

  Beta  occ. eigenvalues --  -67.26897 -67.26897  -5.81248  -5.81246  -4.12303
  Beta  occ. eigenvalues --   -4.12303  -4.11770  -4.11770  -4.11556  -4.11556
  Beta  occ. eigenvalues --   -0.75137  -0.73624  -0.53005  -0.51694
  Beta virt. eigenvalues --   -0.29222  -0.28709  -0.26252  -0.21855  -0.12981
  Beta virt. eigenvalues --   -0.10337  -0.08923  -0.08855  -0.08227  -0.06944
  Beta virt. eigenvalues --   -0.05639  -0.05474  -0.05343  -0.02652   0.11317

 Mulliken charges and spin densities:
               1          2
     1  Si   0.572574   0.510577
     2  Si   0.572583   0.510563
     3  H   -0.072577  -0.010570
     4  H   -0.072579  -0.010570
 Sum of Mulliken charges =   1.00000   1.00000

 Dipole moment (field-independent basis, Debye):
    X=              0.0000    Y=              0.0000    Z=             -0.0000  Tot=              0.0000
 Quadrupole moment (field-independent basis, Debye-Ang):
   XX=             -4.8314   YY=            -27.3018   ZZ=            -19.6968
   XY=              1.7803   XZ=             -0.0000   YZ=              0.0000

 Normal termination of Gaussian 16 at Mon Apr 21 20:35:55 2025.
