 Gaussian 16, Revision A.03,
 Gaussian 16:  ES64L-G16RevA.03 25-Dec-2016

 --------------------------------------------
 #p opt UM062X/6-311+G** nosymm int=superfine
 --------------------------------------------

 -------------------
 Title Card Required
 -------------------
 Symbolic Z-matrix:
 Charge =  0 Multiplicity = 1

 SCF Done:  E(UM062X) =  -110.205824636     A.U. after   13 cycles
 SCF Done:  E(UM062X) =  -110.210390225     A.U. after   13 cycles
 SCF Done:  E(UM062X) =  -110.215911283     A.U. after   14 cycles
 SCF Done:  E(UM062X) =  -110.216231190     A.U. after   16 cycles
 SCF Done:  E(UM062X) =  -110.216231442     A.U. after   10 cycles
 Optimization completed.
    -- Stationary point found.

                          Input orientation:
 ---------------------------------------------------------------------
 Center     Atomic      Atomic             Coordinates (Angstroms)
 Number     Number       Type             X           Y           Z
 ---------------------------------------------------------------------
      1          7           0       -1.515428    0.000000    0.000000
      2          7           0        1.515428    0.000000    0.000000
      3          1           0       -1.319966   -1.020156   -0.000000
      4          1           0        1.319966    1.020156   -0.000000
 ---------------------------------------------------------------------

 Alpha  occ. eigenvalues --  -14.88735 -14.88732  -0.93120  -0.91901  -0.49315
 Alpha  occ. eigenvalues --   -0.48583  -0.32843  -0.30841
 Alpha virt. eigenvalues --   -0.20690  -0.18502   0.05412   0.07270   0.10699
 Alpha virt. eigenvalues --    0.11703   0.13328   0.14811   0.15673   0.18325
 Alpha virt. eigenvalues --    0.19633   0.23203   0.51888   0.55204   0.70341

  Beta  occ. eigenvalues --  -14.88735 -14.88732  -0.93120  -0.91901  -0.49315
  Beta  occ. eigenvalues --   -0.48583  -0.32843  -0.30841
  Beta virt. eigenvalues --   -0.20690  -0.18502   0.05412   0.07270   0.10699
  Beta virt. eigenvalues --    0.11703   0.13328   0.14811   0.15673   0.18325
  Beta virt. eigenvalues --    0.19633   0.23203   0.51888   0.55204   0.70341

 Mulliken charges and spin densities:
               1          2
     1  N   -0.240426  -0.000000
     2  N   -0.240426   0.000000
     3  H    0.240426   0.000000
     4  H    0.240426  -0.000000
 Sum of Mulliken charges =  -0.00000   0.00000

 Dipole moment (field-independent basis, Debye):
    X=             -0.0000    Y=             -0.0000    Z=             -0.0000  Tot=              0.0000
 Quadrupole moment (field-independent basis, Debye-Ang):
   XX=            -14.2575   YY=            -11.1705   ZZ=            -14.2002
   XY=              5.0813   XZ=             -0.0000   YZ=             -0.0000

 Normal termination of Gaussian 16 at Thu May 15 15:39:32 2025.
