 Gaussian 16, Revision A.03,
 Gaussian 16:  ES64L-G16RevA.03 25-Dec-2016

 --------------------------------------------
 #p opt UM062X/6-311+G** nosymm int=superfine
 --------------------------------------------

 -------------------
 Title Card Required
 -------------------
 Symbolic Z-matrix:
 Charge =  1 Multiplicity = 2

 SCF Done:  E(UM062X) =  -76.8616098038     A.U. after   10 cycles
 SCF Done:  E(UM062X) =  -76.8757323768     A.U. after   11 cycles
 SCF Done:  E(UM062X) =  -76.8757403028     A.U. after    7 cycles
 Optimization completed.
    -- Stationary point found.

                          Input orientation:
 ---------------------------------------------------------------------
 Center     Atomic      Atomic             Coordinates (Angstroms)
 Number     Number       Type             X           Y           Z
 ---------------------------------------------------------------------
      1          6           0       -0.689690    0.000000    0.000000
      2          6           0        0.689690    0.000000    0.000000
      3          1           0       -1.774933   -0.000000   -0.000000
      4          1           0        1.774933   -0.000000   -0.000000
 ---------------------------------------------------------------------

 Alpha  occ. eigenvalues --  -10.96409 -10.96308  -1.18128  -0.97927  -0.88349
 Alpha  occ. eigenvalues --   -0.69422  -0.66966
 Alpha virt. eigenvalues --   -0.30718  -0.28697  -0.17649  -0.14407  -0.11280
 Alpha virt. eigenvalues --   -0.09893  -0.09636  -0.08511  -0.05042  -0.04657
 Alpha virt. eigenvalues --    0.02152   0.04437   0.12813   0.19882   0.30476

  Beta  occ. eigenvalues --  -10.96171 -10.96089  -1.13617  -0.96294  -0.87797
  Beta  occ. eigenvalues --   -0.64613
  Beta virt. eigenvalues --   -0.44244  -0.27024  -0.23658  -0.16202  -0.15550
  Beta virt. eigenvalues --   -0.11495  -0.10182  -0.09930  -0.08291  -0.04657
  Beta virt. eigenvalues --   -0.04166   0.01702   0.04619   0.13398   0.20788

 Mulliken charges and spin densities:
               1          2
     1  C    0.170872   0.519798
     2  C    0.170872   0.519798
     3  H    0.329128  -0.019798
     4  H    0.329128  -0.019798
 Sum of Mulliken charges =   1.00000   1.00000

 Dipole moment (field-independent basis, Debye):
    X=              0.0000    Y=             -0.0000    Z=             -0.0000  Tot=              0.0000
 Quadrupole moment (field-independent basis, Debye-Ang):
   XX=              0.4931   YY=            -11.2281   ZZ=            -10.6382
   XY=              0.0000   XZ=              0.0000   YZ=             -0.9078

 Normal termination of Gaussian 16 at Tue Nov 19 13:04:20 2024.
