 Gaussian 16, Revision A.03,
 Gaussian 16:  ES64L-G16RevA.03 25-Dec-2016

 --------------------------------------------
 #p opt UM062X/6-311+G** nosymm int=superfine
 --------------------------------------------

 -------------------
 Title Card Required
 -------------------
 Symbolic Z-matrix:
 Charge =  0 Multiplicity = 1

 SCF Done:  E(UM062X) =  -115.447072064     A.U. after   27 cycles
 SCF Done:  E(UM062X) =  -115.463422495     A.U. after   12 cycles
 SCF Done:  E(UM062X) =  -115.473533697     A.U. after   13 cycles
 SCF Done:  E(UM062X) =  -115.473680237     A.U. after   10 cycles
 SCF Done:  E(UM062X) =  -115.473766809     A.U. after   12 cycles
 SCF Done:  E(UM062X) =  -115.473902393     A.U. after   18 cycles
 SCF Done:  E(UM062X) =  -115.473935784     A.U. after   10 cycles
 SCF Done:  E(UM062X) =  -115.473944972     A.U. after   11 cycles
 SCF Done:  E(UM062X) =  -115.473945297     A.U. after    9 cycles
 Optimization completed.
    -- Stationary point found.

                          Input orientation:
 ---------------------------------------------------------------------
 Center     Atomic      Atomic             Coordinates (Angstroms)
 Number     Number       Type             X           Y           Z
 ---------------------------------------------------------------------
      1          6           0       -1.807203    0.000000    0.000000
      2          8           0        1.807203    0.000000    0.000000
      3          1           0        1.852845   -0.964686    0.000585
      4          1           0       -1.875237   -0.534059    0.937930
      5          1           0       -1.708289    1.076975   -0.000659
      6          1           0       -1.875163   -0.535208   -0.937280
 ---------------------------------------------------------------------

 Alpha  occ. eigenvalues --  -19.58393 -10.67181  -1.00821  -0.84989  -0.57095
 Alpha  occ. eigenvalues --   -0.56894  -0.45358  -0.32317  -0.27727
 Alpha virt. eigenvalues --   -0.17156   0.00342   0.03671   0.03943   0.06794
 Alpha virt. eigenvalues --    0.13272   0.14667   0.14836   0.19387   0.22773
 Alpha virt. eigenvalues --    0.23052   0.24944   0.28131   0.38992   0.39207

  Beta  occ. eigenvalues --  -19.58393 -10.67181  -1.00821  -0.84989  -0.57095
  Beta  occ. eigenvalues --   -0.56894  -0.45358  -0.32317  -0.27727
  Beta virt. eigenvalues --   -0.17156   0.00342   0.03671   0.03943   0.06794
  Beta virt. eigenvalues --    0.13272   0.14667   0.14836   0.19387   0.22773
  Beta virt. eigenvalues --    0.23052   0.24944   0.28131   0.38992   0.39207

 Mulliken charges and spin densities:
               1          2
     1  C   -0.292366  -0.000000
     2  O   -0.564312   0.000000
     3  H    0.211886  -0.000000
     4  H    0.210808   0.000000
     5  H    0.223174   0.000000
     6  H    0.210810   0.000000
 Sum of Mulliken charges =  -0.00000  -0.00000

 Dipole moment (field-independent basis, Debye):
    X=             -6.2426    Y=             -1.5788    Z=              0.0009  Tot=              6.4391
 Quadrupole moment (field-independent basis, Debye-Ang):
   XX=            -13.2341   YY=            -11.4954   ZZ=            -13.9130
   XY=             -3.0256   XZ=              0.0018   YZ=             -0.0015

 Normal termination of Gaussian 16 at Mon Apr 21 18:46:17 2025.
