 Gaussian 16, Revision A.03,
 Gaussian 16:  ES64L-G16RevA.03 25-Dec-2016

 ---------------------------------------
 #p UM062X/6-311+G** force int=superfine
 ---------------------------------------

 -------------------
 Title Card Required
 -------------------
 Symbolic Z-matrix:
 Charge =  1 Multiplicity = 2

                         Standard orientation:
 ---------------------------------------------------------------------
 Center     Atomic      Atomic             Coordinates (Angstroms)
 Number     Number       Type             X           Y           Z
 ---------------------------------------------------------------------
      1          6           0        0.913070   -0.000004    0.000076
      2          6           0       -0.913070   -0.000004   -0.000075
      3          1           0       -1.082676    0.000805    1.073846
      4          1           0        1.081747    0.930576    0.536447
      5          1           0       -1.081862   -0.930544   -0.536477
      6          1           0       -1.081751    0.929760   -0.537857
      7          1           0        1.082683   -0.000818   -1.073844
      8          1           0        1.081859   -0.929732    0.537881
 ---------------------------------------------------------------------

 SCF Done:  E(UM062X) =  -79.3668695678     A.U. after   10 cycles

 The electronic state is 2-A.
 Alpha  occ. eigenvalues --  -10.86163 -10.86147  -1.13634  -1.00648  -0.80278
 Alpha  occ. eigenvalues --   -0.80274  -0.72923  -0.72923  -0.66763
 Alpha virt. eigenvalues --   -0.18265  -0.16892  -0.11515  -0.11514  -0.09483
 Alpha virt. eigenvalues --   -0.07683  -0.06652  -0.06647  -0.05827  -0.05825
 Alpha virt. eigenvalues --   -0.01288   0.01320   0.01325   0.03756   0.07614

  Beta  occ. eigenvalues --  -10.85931 -10.85931  -1.10000  -0.97274  -0.79129
  Beta  occ. eigenvalues --   -0.79126  -0.71988  -0.71986
  Beta virt. eigenvalues --   -0.42766  -0.16327  -0.14775  -0.11313  -0.11313
  Beta virt. eigenvalues --   -0.07954  -0.06751  -0.06749  -0.06248  -0.05429
  Beta virt. eigenvalues --   -0.05426  -0.00045   0.02065   0.02070   0.04346

 Mulliken charges and spin densities:
               1          2
     1  C   -0.327046   0.528832
     2  C   -0.327046   0.528832
     3  H    0.275679  -0.009685
     4  H    0.275681  -0.009572
     5  H    0.275686  -0.009575
     6  H    0.275682  -0.009572
     7  H    0.275679  -0.009685
     8  H    0.275686  -0.009575
 Sum of Mulliken charges =   1.00000   1.00000

 Dipole moment (field-independent basis, Debye):
    X=             -0.0000    Y=              0.0000    Z=             -0.0000  Tot=              0.0000
 Quadrupole moment (field-independent basis, Debye-Ang):
   XX=             -7.2357   YY=            -10.6674   ZZ=            -10.6683
   XY=              0.0000   XZ=              0.0002   YZ=             -0.0000

 Normal termination of Gaussian 16 at Wed Nov 13 13:42:40 2024.
