 Gaussian 16, Revision A.03,
 Gaussian 16:  ES64L-G16RevA.03 25-Dec-2016

 --------------------------------------------
 #p opt UM062X/6-311+G** nosymm int=superfine
 --------------------------------------------

 -------------------
 Title Card Required
 -------------------
 Symbolic Z-matrix:
 Charge =  0 Multiplicity = 1

 SCF Done:  E(UM062X) =  -579.872668199     A.U. after   10 cycles
 SCF Done:  E(UM062X) =  -579.875330556     A.U. after   10 cycles
 SCF Done:  E(UM062X) =  -579.875334471     A.U. after   10 cycles
 Optimization completed.
    -- Stationary point found.

                          Input orientation:
 ---------------------------------------------------------------------
 Center     Atomic      Atomic             Coordinates (Angstroms)
 Number     Number       Type             X           Y           Z
 ---------------------------------------------------------------------
      1         14           0       -2.478705    0.000000    0.000000
      2         14           0        2.478705    0.000000    0.000000
      3          1           0       -4.002014   -0.000028    0.000000
      4          1           0        4.002014    0.000039   -0.000000
 ---------------------------------------------------------------------

 Alpha  occ. eigenvalues --  -67.04477 -67.04477  -5.58918  -5.58917  -3.90034
 Alpha  occ. eigenvalues --   -3.90034  -3.89577  -3.89577  -3.89436  -3.89436
 Alpha  occ. eigenvalues --   -0.54918  -0.54788  -0.33105  -0.32174  -0.17292
 Alpha virt. eigenvalues --   -0.11370  -0.08944  -0.08488   0.02280   0.02935
 Alpha virt. eigenvalues --    0.04415   0.05437   0.05570   0.05881   0.07006
 Alpha virt. eigenvalues --    0.07044   0.08081   0.14143   0.28009   0.29967

  Beta  occ. eigenvalues --  -67.04477 -67.04477  -5.58918  -5.58917  -3.90034
  Beta  occ. eigenvalues --   -3.90034  -3.89577  -3.89577  -3.89436  -3.89436
  Beta  occ. eigenvalues --   -0.54918  -0.54788  -0.33105  -0.32174  -0.17292
  Beta virt. eigenvalues --   -0.11370  -0.08944  -0.08488   0.02280   0.02935
  Beta virt. eigenvalues --    0.04415   0.05437   0.05570   0.05881   0.07006
  Beta virt. eigenvalues --    0.07044   0.08081   0.14143   0.28009   0.29967

 Mulliken charges and spin densities:
               1          2
     1  Si   0.153671   0.000000
     2  Si   0.153671  -0.000000
     3  H   -0.153671  -0.000000
     4  H   -0.153671   0.000000
 Sum of Mulliken charges =  -0.00000  -0.00000

 Dipole moment (field-independent basis, Debye):
    X=             -0.0000    Y=              0.0000    Z=             -0.0000  Tot=              0.0000
 Quadrupole moment (field-independent basis, Debye-Ang):
   XX=            -30.3075   YY=            -24.2252   ZZ=            -35.5590
   XY=             -0.0002   XZ=              0.0000   YZ=             -0.0062

 Normal termination of Gaussian 16 at Mon Apr 21 21:27:10 2025.
