 Gaussian 16, Revision A.03,
 Gaussian 16:  ES64L-G16RevA.03 25-Dec-2016

 --------------------------------------------
 #p opt UM062X/6-311+G** nosymm int=superfine
 --------------------------------------------

 -------------------
 Title Card Required
 -------------------
 Symbolic Z-matrix:
 Charge =  0 Multiplicity = 1

 SCF Done:  E(UM062X) =  -95.5652590765     A.U. after   21 cycles
 SCF Done:  E(UM062X) =  -95.5796752091     A.U. after   13 cycles
 SCF Done:  E(UM062X) =  -95.5893527643     A.U. after   14 cycles
 SCF Done:  E(UM062X) =  -95.5896441001     A.U. after   12 cycles
 SCF Done:  E(UM062X) =  -95.5899615673     A.U. after   13 cycles
 SCF Done:  E(UM062X) =  -95.5903593760     A.U. after   14 cycles
 SCF Done:  E(UM062X) =  -95.5905416645     A.U. after   13 cycles
 SCF Done:  E(UM062X) =  -95.5906432669     A.U. after   13 cycles
 SCF Done:  E(UM062X) =  -95.5906592111     A.U. after   10 cycles
 SCF Done:  E(UM062X) =  -95.5906594943     A.U. after   10 cycles
 SCF Done:  E(UM062X) =  -95.5906596571     A.U. after   10 cycles
 SCF Done:  E(UM062X) =  -95.5906599445     A.U. after   10 cycles
 SCF Done:  E(UM062X) =  -95.5906602715     A.U. after   11 cycles
 SCF Done:  E(UM062X) =  -95.5906605563     A.U. after   11 cycles
 SCF Done:  E(UM062X) =  -95.5906607368     A.U. after   11 cycles
 SCF Done:  E(UM062X) =  -95.5906608384     A.U. after    9 cycles
 Optimization completed.
    -- Stationary point found.

                          Input orientation:
 ---------------------------------------------------------------------
 Center     Atomic      Atomic             Coordinates (Angstroms)
 Number     Number       Type             X           Y           Z
 ---------------------------------------------------------------------
      1          6           0       -2.230542    0.000000    0.000000
      2          7           0        2.230542    0.000000    0.000000
      3          1           0        2.182714   -1.014898    0.142396
      4          1           0       -2.192217    1.079758    0.015536
      5          1           0        2.183715    0.372032    0.954979
      6          1           0       -2.191228   -0.526054   -0.943031
      7          1           0       -2.353309   -0.550371    0.921867
 ---------------------------------------------------------------------

 Alpha  occ. eigenvalues --  -14.74596 -10.62152  -0.90111  -0.81269  -0.53443
 Alpha  occ. eigenvalues --   -0.53331  -0.50639  -0.35845  -0.23649
 Alpha virt. eigenvalues --   -0.15887   0.01738   0.04488   0.04723   0.06835
 Alpha virt. eigenvalues --    0.09947   0.12908   0.15713   0.16490   0.16687
 Alpha virt. eigenvalues --    0.17044   0.20326   0.21363   0.27300   0.40948

  Beta  occ. eigenvalues --  -14.74596 -10.62152  -0.90111  -0.81269  -0.53443
  Beta  occ. eigenvalues --   -0.53331  -0.50639  -0.35845  -0.23649
  Beta virt. eigenvalues --   -0.15887   0.01738   0.04488   0.04723   0.06835
  Beta virt. eigenvalues --    0.09947   0.12908   0.15713   0.16490   0.16687
  Beta virt. eigenvalues --    0.17044   0.20326   0.21363   0.27300   0.40948

 Mulliken charges and spin densities:
               1          2
     1  C   -0.414302   0.000004
     2  N   -0.582018  -0.000004
     3  H    0.210074   0.000000
     4  H    0.194513  -0.000000
     5  H    0.210080   0.000000
     6  H    0.194594  -0.000000
     7  H    0.187060  -0.000000
 Sum of Mulliken charges =  -0.00000   0.00000

 Dipole moment (field-independent basis, Debye):
    X=             -3.8173    Y=             -1.0096    Z=              1.7233  Tot=              4.3082
 Quadrupole moment (field-independent basis, Debye-Ang):
   XX=            -16.0643   YY=            -13.4578   ZZ=            -14.2742
   XY=             -2.2479   XZ=              3.8410   YZ=              0.7287

 Normal termination of Gaussian 16 at Mon Apr 21 18:17:53 2025.
