 Gaussian 16, Revision A.03,
 Gaussian 16:  ES64L-G16RevA.03 25-Dec-2016

 --------------------------------------------
 #p opt UM062X/6-311+G** nosymm int=superfine
 --------------------------------------------

 -------------------
 Title Card Required
 -------------------
 Symbolic Z-matrix:
 Charge =  1 Multiplicity = 2

 SCF Done:  E(UM062X) =  -78.1427804944     A.U. after    9 cycles
 SCF Done:  E(UM062X) =  -78.1538482786     A.U. after    9 cycles
 SCF Done:  E(UM062X) =  -78.1551074290     A.U. after    8 cycles
 SCF Done:  E(UM062X) =  -78.1551554819     A.U. after    6 cycles
 Optimization completed.
    -- Stationary point found.

                          Input orientation:
 ---------------------------------------------------------------------
 Center     Atomic      Atomic             Coordinates (Angstroms)
 Number     Number       Type             X           Y           Z
 ---------------------------------------------------------------------
      1          6           0       -0.819995    0.000000    0.000000
      2          6           0        0.819995    0.000000    0.000000
      3          1           0       -1.336551   -0.954207    0.000000
      4          1           0       -1.336637    0.954168    0.000000
      5          1           0        1.336551    0.954207   -0.000000
      6          1           0        1.336637   -0.954168   -0.000000
 ---------------------------------------------------------------------

 Alpha  occ. eigenvalues --  -10.90999 -10.90965  -1.12569  -0.98755  -0.82612
 Alpha  occ. eigenvalues --   -0.75171  -0.74858  -0.61831
 Alpha virt. eigenvalues --   -0.32852  -0.14514  -0.14100  -0.11613  -0.09083
 Alpha virt. eigenvalues --   -0.07525  -0.07169  -0.05103  -0.04624  -0.04603
 Alpha virt. eigenvalues --   -0.01827  -0.01245   0.03132   0.10020   0.19087

  Beta  occ. eigenvalues --  -10.90774 -10.90749  -1.09027  -0.96715  -0.81769
  Beta  occ. eigenvalues --   -0.74823  -0.73747
  Beta virt. eigenvalues --   -0.39006  -0.25040  -0.16182  -0.13431  -0.11936
  Beta virt. eigenvalues --   -0.09225  -0.08257  -0.07206  -0.04633  -0.03991
  Beta virt. eigenvalues --   -0.03715  -0.01238  -0.00600   0.02787   0.10526

 Mulliken charges and spin densities:
               1          2
     1  C   -0.059882   0.539178
     2  C   -0.059882   0.539178
     3  H    0.279937  -0.019590
     4  H    0.279945  -0.019589
     5  H    0.279937  -0.019590
     6  H    0.279945  -0.019589
 Sum of Mulliken charges =   1.00000   1.00000

 Dipole moment (field-independent basis, Debye):
    X=              0.0000    Y=             -0.0000    Z=             -0.0000  Tot=              0.0000
 Quadrupole moment (field-independent basis, Debye-Ang):
   XX=             -4.4342   YY=             -8.3681   ZZ=            -11.9434
   XY=             -0.0002   XZ=             -0.0000   YZ=             -0.0000

 Normal termination of Gaussian 16 at Tue Nov 19 11:06:57 2024.
