 Gaussian 16, Revision A.03,
 Gaussian 16:  ES64L-G16RevA.03 25-Dec-2016

 --------------------------------------------
 #p opt UM062X/6-311+G** nosymm int=superfine
 --------------------------------------------

 -------------------
 Title Card Required
 -------------------
 Symbolic Z-matrix:
 Charge =  1 Multiplicity = 2

 SCF Done:  E(UM062X) =  -379.384604200     A.U. after   49 cycles
 SCF Done:  E(UM062X) =  -379.384936555     A.U. after   16 cycles
 Optimization completed.
    -- Stationary point found.

                          Input orientation:
 ---------------------------------------------------------------------
 Center     Atomic      Atomic             Coordinates (Angstroms)
 Number     Number       Type             X           Y           Z
 ---------------------------------------------------------------------
      1          6           0       -1.219427    0.000000    0.000000
      2         15           0        1.219427    0.000000    0.000000
      3          1           0       -2.327087   -0.000000    0.000000
 ---------------------------------------------------------------------

 Alpha  occ. eigenvalues --  -78.40227 -10.96708  -7.21322  -5.33184  -5.32754
 Alpha  occ. eigenvalues --   -5.32192  -1.00887  -0.90945  -0.68525  -0.55032
 Alpha  occ. eigenvalues --   -0.53168
 Alpha virt. eigenvalues --   -0.39214  -0.36406  -0.33362  -0.13420  -0.10550
 Alpha virt. eigenvalues --   -0.09161  -0.08883  -0.08506  -0.05412  -0.05335
 Alpha virt. eigenvalues --   -0.00613   0.03509   0.11616   0.14396   0.14406

  Beta  occ. eigenvalues --  -78.39825 -10.96454  -7.21236  -5.32664  -5.32254
  Beta  occ. eigenvalues --   -5.31862  -0.98312  -0.88197  -0.67270  -0.51635
  Beta virt. eigenvalues --   -0.37394  -0.35485  -0.31853  -0.31257  -0.14529
  Beta virt. eigenvalues --   -0.11020  -0.09108  -0.08977  -0.08762  -0.05505
  Beta virt. eigenvalues --   -0.05467  -0.01692   0.03941   0.11208   0.11763

 Mulliken charges and spin densities:
               1          2
     1  C   -0.017269   0.473326
     2  P    0.703484   0.545508
     3  H    0.313786  -0.018834
 Sum of Mulliken charges =   1.00000   1.00000

 Dipole moment (field-independent basis, Debye):
    X=              0.1051    Y=             -0.0000    Z=              0.0000  Tot=              0.1051
 Quadrupole moment (field-independent basis, Debye-Ang):
   XX=             -0.6219   YY=            -18.4154   ZZ=            -16.9950
   XY=              0.0000   XZ=              0.0000   YZ=              1.5181

 Normal termination of Gaussian 16 at Mon Apr 21 19:25:37 2025.
