 Gaussian 16, Revision A.03,
 Gaussian 16:  ES64L-G16RevA.03 25-Dec-2016

 --------------------------------------------
 #p opt UM062X/6-311+G** nosymm int=superfine
 --------------------------------------------

 -------------------
 Title Card Required
 -------------------
 Symbolic Z-matrix:
 Charge =  1 Multiplicity = 2

 SCF Done:  E(UM062X) =  -582.142302511     A.U. after   11 cycles
 SCF Done:  E(UM062X) =  -582.142971990     A.U. after    9 cycles
 SCF Done:  E(UM062X) =  -582.143107937     A.U. after    9 cycles
 Optimization completed.
    -- Stationary point found.

                          Input orientation:
 ---------------------------------------------------------------------
 Center     Atomic      Atomic             Coordinates (Angstroms)
 Number     Number       Type             X           Y           Z
 ---------------------------------------------------------------------
      1         14           0       -2.151292    0.000000    0.000000
      2         14           0        2.151292    0.000000    0.000000
      3          1           0        2.276763   -1.459275   -0.000004
      4          1           0       -2.276330   -0.729518    1.263886
      5          1           0        2.276856    0.729668   -1.263746
      6          1           0        2.276129    0.729608    1.263855
      7          1           0       -2.276790    1.459273   -0.000120
      8          1           0       -2.276629   -0.729762   -1.263715
 ---------------------------------------------------------------------

 Alpha  occ. eigenvalues --  -67.22807 -67.22807  -5.77637  -5.77635  -4.09316
 Alpha  occ. eigenvalues --   -4.09316  -4.08508  -4.08508  -4.08508  -4.08508
 Alpha  occ. eigenvalues --   -0.81417  -0.80876  -0.61709  -0.61708  -0.61556
 Alpha  occ. eigenvalues --   -0.61555  -0.41774
 Alpha virt. eigenvalues --   -0.29355  -0.12572  -0.11910  -0.09980  -0.09979
 Alpha virt. eigenvalues --   -0.09950  -0.08717  -0.08716  -0.07773  -0.07560
 Alpha virt. eigenvalues --   -0.07559  -0.06243  -0.06240  -0.04614   0.00745

  Beta  occ. eigenvalues --  -67.22543 -67.22542  -5.77558  -5.77556  -4.08698
  Beta  occ. eigenvalues --   -4.08697  -4.08417  -4.08417  -4.08417  -4.08417
  Beta  occ. eigenvalues --   -0.79636  -0.79315  -0.61570  -0.61570  -0.61408
  Beta  occ. eigenvalues --   -0.61407
  Beta virt. eigenvalues --   -0.31433  -0.22877  -0.14707  -0.12787  -0.12786
  Beta virt. eigenvalues --   -0.10955  -0.10859  -0.09182  -0.09181  -0.07198
  Beta virt. eigenvalues --   -0.07141  -0.07141  -0.05900  -0.05900  -0.05405

 Mulliken charges and spin densities:
               1          2
     1  Si   0.498285   0.549763
     2  Si   0.498285   0.549763
     3  H    0.000559  -0.016610
     4  H    0.000575  -0.016576
     5  H    0.000585  -0.016578
     6  H    0.000572  -0.016574
     7  H    0.000559  -0.016611
     8  H    0.000581  -0.016576
 Sum of Mulliken charges =   1.00000   1.00000

 Dipole moment (field-independent basis, Debye):
    X=              0.0000    Y=             -0.0000    Z=              0.0001  Tot=              0.0001
 Quadrupole moment (field-independent basis, Debye-Ang):
   XX=              1.8320   YY=            -26.1896   ZZ=            -26.1892
   XY=              0.0005   XZ=              0.0001   YZ=             -0.0000

 Normal termination of Gaussian 16 at Mon Apr 21 20:15:09 2025.
