 Gaussian 16, Revision A.03,
 Gaussian 16:  ES64L-G16RevA.03 25-Dec-2016

 --------------------------------------------
 #p opt UM062X/6-311+G** nosymm int=superfine
 --------------------------------------------

 -------------------
 Title Card Required
 -------------------
 Symbolic Z-matrix:
 Charge =  0 Multiplicity = 1

 SCF Done:  E(UM062X) =  -111.630824847     A.U. after   16 cycles
 SCF Done:  E(UM062X) =  -111.640040651     A.U. after   16 cycles
 SCF Done:  E(UM062X) =  -111.646607918     A.U. after   16 cycles
 SCF Done:  E(UM062X) =  -111.648868840     A.U. after   14 cycles
 SCF Done:  E(UM062X) =  -111.650391668     A.U. after   15 cycles
 SCF Done:  E(UM062X) =  -111.650864229     A.U. after   14 cycles
 SCF Done:  E(UM062X) =  -111.651507397     A.U. after   15 cycles
 SCF Done:  E(UM062X) =  -111.651637632     A.U. after   14 cycles
 SCF Done:  E(UM062X) =  -111.651689267     A.U. after   13 cycles
 SCF Done:  E(UM062X) =  -111.651731908     A.U. after   12 cycles
 SCF Done:  E(UM062X) =  -111.651775045     A.U. after   13 cycles
 SCF Done:  E(UM062X) =  -111.651783298     A.U. after   11 cycles
 Optimization completed.
    -- Stationary point found.

                          Input orientation:
 ---------------------------------------------------------------------
 Center     Atomic      Atomic             Coordinates (Angstroms)
 Number     Number       Type             X           Y           Z
 ---------------------------------------------------------------------
      1          7           0       -1.636540    0.000000    0.000000
      2          7           0        1.636540    0.000000    0.000000
      3          1           0       -1.537787   -0.810687   -0.623774
      4          1           0        1.537569    0.402505   -0.940358
      5          1           0       -1.533957   -0.415560    0.934249
      6          1           0        1.533886    0.818962    0.612204
 ---------------------------------------------------------------------

 Alpha  occ. eigenvalues --  -14.80562 -14.80561  -0.95237  -0.94620  -0.55258
 Alpha  occ. eigenvalues --   -0.54859  -0.40897  -0.40364  -0.29656
 Alpha virt. eigenvalues --   -0.17070   0.04474   0.06377   0.08693   0.11487
 Alpha virt. eigenvalues --    0.12705   0.13796   0.15853   0.16033   0.18621
 Alpha virt. eigenvalues --    0.19545   0.26294   0.27099   0.51307   0.51512

  Beta  occ. eigenvalues --  -14.80562 -14.80561  -0.95237  -0.94620  -0.55258
  Beta  occ. eigenvalues --   -0.54859  -0.40897  -0.40364  -0.29656
  Beta virt. eigenvalues --   -0.17070   0.04474   0.06377   0.08693   0.11487
  Beta virt. eigenvalues --    0.12705   0.13796   0.15853   0.16033   0.18621
  Beta virt. eigenvalues --    0.19545   0.26294   0.27099   0.51307   0.51512

 Mulliken charges and spin densities:
               1          2
     1  N   -0.493332  -0.000000
     2  N   -0.493276   0.000000
     3  H    0.246476   0.000000
     4  H    0.246486  -0.000000
     5  H    0.246820   0.000000
     6  H    0.246827  -0.000000
 Sum of Mulliken charges =  -0.00000   0.00000

 Dipole moment (field-independent basis, Debye):
    X=             -0.0003    Y=             -0.0074    Z=             -0.0278  Tot=              0.0288
 Quadrupole moment (field-independent basis, Debye-Ang):
   XX=            -16.2022   YY=            -14.3034   ZZ=            -11.5000
   XY=              6.8448   XZ=             -1.7857   YZ=              0.7849

 Normal termination of Gaussian 16 at Thu May 15 14:53:35 2025.
