 Gaussian 16, Revision A.03,
 Gaussian 16:  ES64L-G16RevA.03 25-Dec-2016

 --------------------------------------------
 #p opt UM062X/6-311+G** nosymm int=superfine
 --------------------------------------------

 -------------------
 Title Card Required
 -------------------
 Symbolic Z-matrix:
 Charge =  0 Multiplicity = 1

 SCF Done:  E(UM062X) =  -382.215642329     A.U. after   18 cycles
 SCF Done:  E(UM062X) =  -382.226343033     A.U. after   13 cycles
 SCF Done:  E(UM062X) =  -382.233246136     A.U. after   14 cycles
 SCF Done:  E(UM062X) =  -382.233366046     A.U. after   12 cycles
 SCF Done:  E(UM062X) =  -382.233415989     A.U. after   12 cycles
 SCF Done:  E(UM062X) =  -382.233501285     A.U. after   13 cycles
 SCF Done:  E(UM062X) =  -382.233552146     A.U. after   12 cycles
 SCF Done:  E(UM062X) =  -382.233563021     A.U. after   11 cycles
 SCF Done:  E(UM062X) =  -382.233563669     A.U. after   10 cycles
 SCF Done:  E(UM062X) =  -382.233563976     A.U. after   10 cycles
 SCF Done:  E(UM062X) =  -382.233564524     A.U. after    8 cycles
 SCF Done:  E(UM062X) =  -382.233565189     A.U. after    9 cycles
 SCF Done:  E(UM062X) =  -382.233565664     A.U. after   11 cycles
 SCF Done:  E(UM062X) =  -382.233565901     A.U. after   11 cycles
 Optimization completed.
    -- Stationary point found.

                          Input orientation:
 ---------------------------------------------------------------------
 Center     Atomic      Atomic             Coordinates (Angstroms)
 Number     Number       Type             X           Y           Z
 ---------------------------------------------------------------------
      1          6           0       -2.356264    0.000000    0.000000
      2         15           0        2.356264    0.000000    0.000000
      3          1           0        2.266846   -1.416730    0.019003
      4          1           0       -2.363121    1.054830    0.232771
      5          1           0        2.265261    0.069517    1.415019
      6          1           0       -2.363418   -0.325028   -1.030149
      7          1           0       -2.409713   -0.728493    0.795948
 ---------------------------------------------------------------------

 Alpha  occ. eigenvalues --  -78.02878 -10.59809  -6.85322  -4.96841  -4.96771
 Alpha  occ. eigenvalues --   -4.96590  -0.79301  -0.69350  -0.51516  -0.51488
 Alpha  occ. eigenvalues --   -0.43520  -0.34616  -0.22250
 Alpha virt. eigenvalues --   -0.14468   0.02054   0.03711   0.03981   0.04477
 Alpha virt. eigenvalues --    0.06041   0.06476   0.07201   0.07315   0.10760
 Alpha virt. eigenvalues --    0.15972   0.17897   0.17938   0.22373   0.30626

  Beta  occ. eigenvalues --  -78.02878 -10.59809  -6.85322  -4.96841  -4.96771
  Beta  occ. eigenvalues --   -4.96590  -0.79301  -0.69350  -0.51516  -0.51488
  Beta  occ. eigenvalues --   -0.43520  -0.34616  -0.22250
  Beta virt. eigenvalues --   -0.14468   0.02054   0.03711   0.03981   0.04477
  Beta virt. eigenvalues --    0.06041   0.06476   0.07201   0.07315   0.10760
  Beta virt. eigenvalues --    0.15972   0.17897   0.17938   0.22373   0.30626

 Mulliken charges and spin densities:
               1          2
     1  C   -0.476345   0.000000
     2  P   -0.043868  -0.000000
     3  H   -0.012759   0.000000
     4  H    0.182674  -0.000000
     5  H   -0.012761   0.000000
     6  H    0.182634  -0.000000
     7  H    0.180425  -0.000000
 Sum of Mulliken charges =  -0.00000  -0.00000

 Dipole moment (field-independent basis, Debye):
    X=             -1.9389    Y=             -0.5848    Z=              0.6227  Tot=              2.1187
 Quadrupole moment (field-independent basis, Debye-Ang):
   XX=            -22.9278   YY=            -22.4343   ZZ=            -22.5229
   XY=             -1.4312   XZ=              1.5211   YZ=              0.7065

 Normal termination of Gaussian 16 at Mon Apr 21 19:13:18 2025.
