 Gaussian 16, Revision A.03,
 Gaussian 16:  ES64L-G16RevA.03 25-Dec-2016

 --------------------------------------------
 #p opt UM062X/6-311+G** nosymm int=superfine
 --------------------------------------------

 -------------------
 Title Card Required
 -------------------
 Symbolic Z-matrix:
 Charge =  0 Multiplicity = 1

 SCF Done:  E(UM062X) =  -79.5774160529     A.U. after   10 cycles
 SCF Done:  E(UM062X) =  -79.5809460328     A.U. after    9 cycles
 SCF Done:  E(UM062X) =  -79.5823300348     A.U. after    9 cycles
 SCF Done:  E(UM062X) =  -79.5823378044     A.U. after   10 cycles
 Optimization completed.
    -- Stationary point found.

                          Input orientation:
 ---------------------------------------------------------------------
 Center     Atomic      Atomic             Coordinates (Angstroms)
 Number     Number       Type             X           Y           Z
 ---------------------------------------------------------------------
      1          6           0       -1.871675    0.000000    0.000000
      2          6           0        1.871800    0.000000    0.000000
      3          1           0        1.939465   -0.932922    0.539833
      4          1           0       -1.939326   -0.933975   -0.538012
      5          1           0        1.939455    0.933975    0.538011
      6          1           0        1.939453   -0.001051   -1.077853
      7          1           0       -1.939340    0.932923   -0.539833
      8          1           0       -1.939332    0.001051    1.077853
 ---------------------------------------------------------------------

 Alpha  occ. eigenvalues --  -10.57219 -10.57217  -0.77075  -0.76660  -0.49182
 Alpha  occ. eigenvalues --   -0.49182  -0.48999  -0.48999  -0.22109
 Alpha virt. eigenvalues --   -0.10791   0.03103   0.05090   0.05314   0.05314
 Alpha virt. eigenvalues --    0.07485   0.07485   0.11428   0.12537   0.18598
 Alpha virt. eigenvalues --    0.18598   0.20381   0.20381   0.22615   0.25004

  Beta  occ. eigenvalues --  -10.57219 -10.57217  -0.77075  -0.76660  -0.49182
  Beta  occ. eigenvalues --   -0.49182  -0.48999  -0.48999  -0.22109
  Beta virt. eigenvalues --   -0.10791   0.03103   0.05090   0.05314   0.05314
  Beta virt. eigenvalues --    0.07485   0.07485   0.11428   0.12537   0.18598
  Beta virt. eigenvalues --    0.18598   0.20381   0.20381   0.22615   0.25004

 Mulliken charges and spin densities:
               1          2
     1  C   -0.525833   0.000000
     2  C   -0.525833  -0.000000
     3  H    0.175278   0.000000
     4  H    0.175278  -0.000000
     5  H    0.175278   0.000000
     6  H    0.175278   0.000000
     7  H    0.175278  -0.000000
     8  H    0.175277  -0.000000
 Sum of Mulliken charges =  -0.00000  -0.00000

 Dipole moment (field-independent basis, Debye):
    X=             -0.0000    Y=             -0.0000    Z=             -0.0000  Tot=              0.0000
 Quadrupole moment (field-independent basis, Debye-Ang):
   XX=            -15.5984   YY=            -14.8570   ZZ=            -14.8571
   XY=             -0.0000   XZ=              0.0000   YZ=             -0.0000

 Normal termination of Gaussian 16 at Tue Dec  3 10:06:14 2024.
