 Gaussian 16, Revision A.03,
 Gaussian 16:  ES64L-G16RevA.03 25-Dec-2016

 --------------------------------------------
 #p opt UM062X/6-311+G** nosymm int=superfine
 --------------------------------------------

 -------------------
 Title Card Required
 -------------------
 Symbolic Z-matrix:
 Charge =  1 Multiplicity = 2

 SCF Done:  E(UM062X) =  -79.3571452915     A.U. after   10 cycles
 SCF Done:  E(UM062X) =  -79.3575851268     A.U. after    9 cycles
 SCF Done:  E(UM062X) =  -79.3575867353     A.U. after    7 cycles
 Optimization completed.
    -- Stationary point found.

                          Input orientation:
 ---------------------------------------------------------------------
 Center     Atomic      Atomic             Coordinates (Angstroms)
 Number     Number       Type             X           Y           Z
 ---------------------------------------------------------------------
      1          6           0       -1.241205    0.000000    0.000000
      2          6           0        1.241205    0.000000    0.000000
      3          1           0        1.323461   -0.935662    0.541496
      4          1           0       -1.322706   -0.936772   -0.539689
      5          1           0        1.323174    0.936838    0.539505
      6          1           0        1.322782   -0.001130   -1.081106
      7          1           0       -1.323485    0.935726   -0.541383
      8          1           0       -1.323225    0.000941    1.081072
 ---------------------------------------------------------------------

 Alpha  occ. eigenvalues --  -10.85707 -10.85702  -1.06604  -1.02466  -0.76456
 Alpha  occ. eigenvalues --   -0.76456  -0.74254  -0.74253  -0.57365
 Alpha virt. eigenvalues --   -0.31347  -0.15344  -0.10643  -0.10643  -0.09990
 Alpha virt. eigenvalues --   -0.06367  -0.06225  -0.06225  -0.04020  -0.04018
 Alpha virt. eigenvalues --   -0.02778   0.01620   0.01621   0.05329   0.07362

  Beta  occ. eigenvalues --  -10.85507 -10.85507  -1.03340  -0.99974  -0.75704
  Beta  occ. eigenvalues --   -0.75703  -0.73664  -0.73663
  Beta virt. eigenvalues --   -0.34888  -0.22565  -0.15654  -0.11092  -0.11092
  Beta virt. eigenvalues --   -0.09443  -0.06570  -0.06569  -0.06360  -0.03838
  Beta virt. eigenvalues --   -0.03836  -0.02025   0.02063   0.02064   0.05757

 Mulliken charges and spin densities:
               1          2
     1  C   -0.288918   0.572842
     2  C   -0.288918   0.572842
     3  H    0.262991  -0.024280
     4  H    0.262958  -0.024268
     5  H    0.262977  -0.024277
     6  H    0.262950  -0.024285
     7  H    0.262992  -0.024281
     8  H    0.262967  -0.024293
 Sum of Mulliken charges =   1.00000   1.00000

 Dipole moment (field-independent basis, Debye):
    X=              0.0000    Y=             -0.0000    Z=             -0.0000  Tot=              0.0001
 Quadrupole moment (field-independent basis, Debye-Ang):
   XX=             -3.9199   YY=            -10.9223   ZZ=            -10.9226
   XY=             -0.0008   XZ=              0.0004   YZ=             -0.0001

 Normal termination of Gaussian 16 at Wed Nov 13 12:40:56 2024.
