 Gaussian 16, Revision A.03,
 Gaussian 16:  ES64L-G16RevA.03 25-Dec-2016

 --------------------------------------------
 #p opt UM062X/6-311+G** nosymm int=superfine
 --------------------------------------------

 -------------------
 Title Card Required
 -------------------
 Symbolic Z-matrix:
 Charge =  0 Multiplicity = 1

 SCF Done:  E(UM062X) =  -380.934344751     A.U. after   19 cycles
 SCF Done:  E(UM062X) =  -380.936813674     A.U. after   15 cycles
 SCF Done:  E(UM062X) =  -380.937780173     A.U. after   15 cycles
 SCF Done:  E(UM062X) =  -380.937870135     A.U. after   16 cycles
 SCF Done:  E(UM062X) =  -380.938004673     A.U. after   15 cycles
 SCF Done:  E(UM062X) =  -380.938097792     A.U. after   18 cycles
 SCF Done:  E(UM062X) =  -380.938170815     A.U. after   17 cycles
 SCF Done:  E(UM062X) =  -380.938173507     A.U. after   19 cycles
 SCF Done:  E(UM062X) =  -380.938174881     A.U. after   16 cycles
 SCF Done:  E(UM062X) =  -380.938176906     A.U. after   16 cycles
 SCF Done:  E(UM062X) =  -380.938177730     A.U. after   13 cycles
 SCF Done:  E(UM062X) =  -380.938179198     A.U. after   25 cycles
 SCF Done:  E(UM062X) =  -380.938181411     A.U. after   21 cycles
 SCF Done:  E(UM062X) =  -380.938182166     A.U. after   18 cycles
 SCF Done:  E(UM062X) =  -380.938182855     A.U. after   16 cycles
 SCF Done:  E(UM062X) =  -380.938182939     A.U. after   13 cycles
 SCF Done:  E(UM062X) =  -380.938182950     A.U. after   11 cycles
 SCF Done:  E(UM062X) =  -380.938182951     A.U. after   18 cycles
 Optimization completed.
    -- Stationary point found.

                          Input orientation:
 ---------------------------------------------------------------------
 Center     Atomic      Atomic             Coordinates (Angstroms)
 Number     Number       Type             X           Y           Z
 ---------------------------------------------------------------------
      1          6           0       -1.855452    0.000000    0.000000
      2         15           0        1.855452    0.000000    0.000000
      3          1           0       -2.563384   -0.848713    0.000091
      4          1           0        1.602553   -1.398654   -0.005873
      5          1           0       -2.507042    0.892536    0.000469
 ---------------------------------------------------------------------

 Alpha  occ. eigenvalues --  -78.04125 -10.63211  -6.86357  -4.98357  -4.97599
 Alpha  occ. eigenvalues --   -4.97149  -0.77558  -0.65126  -0.49933  -0.37845
 Alpha  occ. eigenvalues --   -0.33591  -0.23985
 Alpha virt. eigenvalues --   -0.10640  -0.10038   0.01263   0.03981   0.04715
 Alpha virt. eigenvalues --    0.06204   0.06928   0.07482   0.08765   0.11027
 Alpha virt. eigenvalues --    0.13542   0.17117   0.18531   0.31254   0.34093

  Beta  occ. eigenvalues --  -78.04125 -10.63211  -6.86357  -4.98357  -4.97599
  Beta  occ. eigenvalues --   -4.97149  -0.77558  -0.65126  -0.49933  -0.37845
  Beta  occ. eigenvalues --   -0.33591  -0.23985
  Beta virt. eigenvalues --   -0.10640  -0.10038   0.01263   0.03981   0.04715
  Beta virt. eigenvalues --    0.06204   0.06928   0.07482   0.08765   0.11027
  Beta virt. eigenvalues --    0.13542   0.17117   0.18531   0.31254   0.34093

 Mulliken charges and spin densities:
               1          2
     1  C   -0.298004   0.000000
     2  P    0.035529  -0.000000
     3  H    0.147599  -0.000000
     4  H   -0.032723   0.000000
     5  H    0.147600  -0.000000
 Sum of Mulliken charges =   0.00000   0.00000

 Dipole moment (field-independent basis, Debye):
    X=             -2.8052    Y=             -0.5920    Z=             -0.0019  Tot=              2.8670
 Quadrupole moment (field-independent basis, Debye-Ang):
   XX=            -13.2180   YY=            -21.3484   ZZ=            -25.4228
   XY=             -1.8637   XZ=             -0.0062   YZ=              0.0188

 Normal termination of Gaussian 16 at Mon Apr 21 19:21:23 2025.
