 Gaussian 16, Revision A.03,
 Gaussian 16:  ES64L-G16RevA.03 25-Dec-2016

 --------------------------------------------
 #p opt UM062X/6-311+G** nosymm int=superfine
 --------------------------------------------

 -------------------
 Title Card Required
 -------------------
 Symbolic Z-matrix:
 Charge =  0 Multiplicity = 1

 SCF Done:  E(UM062X) =  -77.2976353849     A.U. after    9 cycles
 SCF Done:  E(UM062X) =  -77.3041577304     A.U. after    9 cycles
 SCF Done:  E(UM062X) =  -77.3041588113     A.U. after    6 cycles
 Optimization completed.
    -- Stationary point found.

                          Input orientation:
 ---------------------------------------------------------------------
 Center     Atomic      Atomic             Coordinates (Angstroms)
 Number     Number       Type             X           Y           Z
 ---------------------------------------------------------------------
      1          6           0       -0.562605    0.000000    0.000000
      2          6           0        0.562605    0.000000    0.000000
      3          1           0       -1.625586   -0.000000    0.000000
      4          1           0        1.625586   -0.000000    0.000000
 ---------------------------------------------------------------------

 Alpha  occ. eigenvalues --  -10.52710 -10.52224  -0.86943  -0.63705  -0.56833
 Alpha  occ. eigenvalues --   -0.37130  -0.37130
 Alpha virt. eigenvalues --    0.02688   0.03033   0.05730   0.05730   0.07478
 Alpha virt. eigenvalues --    0.07478   0.09328   0.16274   0.16382   0.16382
 Alpha virt. eigenvalues --    0.20617   0.24644   0.42138   0.44423   0.55961

  Beta  occ. eigenvalues --  -10.52710 -10.52224  -0.86943  -0.63705  -0.56833
  Beta  occ. eigenvalues --   -0.37130  -0.37130
  Beta virt. eigenvalues --    0.02688   0.03033   0.05730   0.05730   0.07478
  Beta virt. eigenvalues --    0.07478   0.09328   0.16274   0.16382   0.16382
  Beta virt. eigenvalues --    0.20617   0.24644   0.42138   0.44423   0.55961

 Mulliken charges and spin densities:
               1          2
     1  C   -0.159980  -0.000000
     2  C   -0.159981   0.000000
     3  H    0.159981  -0.000000
     4  H    0.159981   0.000000
 Sum of Mulliken charges =  -0.00000  -0.00000

 Dipole moment (field-independent basis, Debye):
    X=             -0.0000    Y=             -0.0000    Z=              0.0000  Tot=              0.0000
 Quadrupole moment (field-independent basis, Debye-Ang):
   XX=             -7.1169   YY=            -13.4336   ZZ=            -13.4336
   XY=             -0.0000   XZ=             -0.0000   YZ=             -0.0000

 Normal termination of Gaussian 16 at Tue Dec  3 20:01:51 2024.
