 Gaussian 16, Revision A.03,
 Gaussian 16:  ES64L-G16RevA.03 25-Dec-2016

 ---------------------------------------------------
 #p UM062X/6-311+G** force int=superfine pop=saveNBO
 ---------------------------------------------------

 -------------------
 Title Card Required
 -------------------
 Symbolic Z-matrix:
 Charge =  0 Multiplicity = 1

                         Standard orientation:
 ---------------------------------------------------------------------
 Center     Atomic      Atomic             Coordinates (Angstroms)
 Number     Number       Type             X           Y           Z
 ---------------------------------------------------------------------
      1          6           0        0.000000    0.000000   -1.402612
      2         16           0        0.000000    0.000000    0.525980
 ---------------------------------------------------------------------

 SCF Done:  E(UM062X) =  -436.108460211     A.U. after   11 cycles

 The electronic state is 1-SG.
 Alpha  occ. eigenvalues --  -89.95765 -10.74088  -8.31673  -6.23564  -6.23433
 Alpha  occ. eigenvalues --   -6.23433  -0.83670  -0.63004  -0.39035  -0.36138
 Alpha  occ. eigenvalues --   -0.36138
 Alpha virt. eigenvalues --   -0.10687  -0.10687   0.01194   0.03662   0.05553
 Alpha virt. eigenvalues --    0.05553   0.08138   0.08778   0.10110   0.10110
 Alpha virt. eigenvalues --    0.16525   0.33752   0.35080   0.35080   0.55633

  Beta  occ. eigenvalues --  -89.95765 -10.74088  -8.31673  -6.23564  -6.23433
  Beta  occ. eigenvalues --   -6.23433  -0.83670  -0.63004  -0.39035  -0.36138
  Beta  occ. eigenvalues --   -0.36138
  Beta virt. eigenvalues --   -0.10687  -0.10687   0.01194   0.03662   0.05553
  Beta virt. eigenvalues --    0.05553   0.08138   0.08778   0.10110   0.10110
  Beta virt. eigenvalues --    0.16525   0.33752   0.35080   0.35080   0.55633

 Mulliken charges and spin densities:
               1          2
     1  C    0.032269  -0.000000
     2  S   -0.032269   0.000000
 Sum of Mulliken charges =  -0.00000   0.00000

 Dipole moment (field-independent basis, Debye):
    X=              0.0000    Y=              0.0000    Z=              0.0942  Tot=              0.0942
 Quadrupole moment (field-independent basis, Debye-Ang):
   XX=            -19.5579   YY=            -19.5579   ZZ=            -19.3910
   XY=              0.0000   XZ=              0.0000   YZ=              0.0000

 Summary of Natural Population Analysis:

                                       Natural Population
                Natural  -----------------------------------------------
    Atom  No    Charge         Core      Valence    Rydberg      Total
 -----------------------------------------------------------------------
      C    1    0.04737      0.99997     1.94729    0.00538     2.95263
      S    2   -0.04737      4.99986     3.03389    0.01362     8.04737
 =======================================================================
   * Total *    0.00000      5.99983     4.98118    0.01899    11.00000

 Normal termination of Gaussian 16 at Mon Apr 21 19:45:27 2025.
