 Gaussian 16, Revision A.03,
 Gaussian 16:  ES64L-G16RevA.03 25-Dec-2016

 --------------------------------------------
 #p opt UM062X/6-311+G** nosymm int=superfine
 --------------------------------------------

 -------------------
 Title Card Required
 -------------------
 Symbolic Z-matrix:
 Charge =  0 Multiplicity = 1

 SCF Done:  E(UM062X) =  -78.1493382877     A.U. after    8 cycles
 SCF Done:  E(UM062X) =  -78.1507524957     A.U. after    9 cycles
 SCF Done:  E(UM062X) =  -78.1516101783     A.U. after    9 cycles
 SCF Done:  E(UM062X) =  -78.1516132406     A.U. after    8 cycles
 Optimization completed.
    -- Stationary point found.

                          Input orientation:
 ---------------------------------------------------------------------
 Center     Atomic      Atomic             Coordinates (Angstroms)
 Number     Number       Type             X           Y           Z
 ---------------------------------------------------------------------
      1          6           0       -1.560595    0.000000    0.000000
      2          6           0        1.560595    0.000000    0.000000
      3          1           0       -1.931247   -1.011856   -0.000001
      4          1           0       -1.931236    1.011861   -0.000001
      5          1           0        1.931248    1.011856    0.000001
      6          1           0        1.931237   -1.011861    0.000001
 ---------------------------------------------------------------------

 Alpha  occ. eigenvalues --  -10.63328 -10.63325  -0.75674  -0.74680  -0.54153
 Alpha  occ. eigenvalues --   -0.53830  -0.28287  -0.22551
 Alpha virt. eigenvalues --   -0.12509  -0.11048   0.03395   0.04994   0.05223
 Alpha virt. eigenvalues --    0.06847   0.09248   0.10563   0.11013   0.13350
 Alpha virt. eigenvalues --    0.16135   0.18113   0.21411   0.26714   0.41803

  Beta  occ. eigenvalues --  -10.63328 -10.63325  -0.75674  -0.74680  -0.54153
  Beta  occ. eigenvalues --   -0.53830  -0.28287  -0.22551
  Beta virt. eigenvalues --   -0.12509  -0.11048   0.03395   0.04994   0.05223
  Beta virt. eigenvalues --    0.06847   0.09248   0.10563   0.11013   0.13350
  Beta virt. eigenvalues --    0.16135   0.18113   0.21411   0.26714   0.41803

 Mulliken charges and spin densities:
               1          2
     1  C   -0.390782   0.000000
     2  C   -0.390782  -0.000000
     3  H    0.195391  -0.000000
     4  H    0.195391  -0.000000
     5  H    0.195391   0.000000
     6  H    0.195391   0.000000
 Sum of Mulliken charges =  -0.00000   0.00000

 Dipole moment (field-independent basis, Debye):
    X=              0.0000    Y=              0.0000    Z=              0.0000  Tot=              0.0000
 Quadrupole moment (field-independent basis, Debye-Ang):
   XX=             -9.0969   YY=            -11.7447   ZZ=            -19.2049
   XY=              0.0000   XZ=             -0.0000   YZ=              0.0000

 Normal termination of Gaussian 16 at Tue Dec  3 11:10:38 2024.
