 Gaussian 16, Revision A.03,
 Gaussian 16:  ES64L-G16RevA.03 25-Dec-2016

 --------------------------------------------
 #p opt UM062X/6-311+G** nosymm int=superfine
 --------------------------------------------

 -------------------
 Title Card Required
 -------------------
 Symbolic Z-matrix:
 Charge =  1 Multiplicity = 2

 SCF Done:  E(UM062X) =  -579.681568288     A.U. after   15 cycles
 SCF Done:  E(UM062X) =  -579.683701342     A.U. after   14 cycles
 SCF Done:  E(UM062X) =  -579.687610940     A.U. after   15 cycles
 SCF Done:  E(UM062X) =  -579.688398821     A.U. after   14 cycles
 SCF Done:  E(UM062X) =  -579.688669546     A.U. after   13 cycles
 SCF Done:  E(UM062X) =  -579.688694223     A.U. after   12 cycles
 SCF Done:  E(UM062X) =  -579.688709731     A.U. after   12 cycles
 SCF Done:  E(UM062X) =  -579.688725663     A.U. after   12 cycles
 SCF Done:  E(UM062X) =  -579.688737554     A.U. after   12 cycles
 SCF Done:  E(UM062X) =  -579.688743097     A.U. after   12 cycles
 SCF Done:  E(UM062X) =  -579.688744009     A.U. after   10 cycles
 Optimization completed.
    -- Stationary point found.

                          Input orientation:
 ---------------------------------------------------------------------
 Center     Atomic      Atomic             Coordinates (Angstroms)
 Number     Number       Type             X           Y           Z
 ---------------------------------------------------------------------
      1         14           0       -1.977975    0.000000    0.000000
      2         14           0        1.977975    0.000000    0.000000
      3          1           0       -2.078221   -1.504319   -0.000000
      4          1           0        2.077986    1.504338   -0.000000
 ---------------------------------------------------------------------

 Alpha  occ. eigenvalues --  -67.26799 -67.26799  -5.80965  -5.80963  -4.12063
 Alpha  occ. eigenvalues --   -4.12062  -4.11984  -4.11984  -4.11330  -4.11330
 Alpha  occ. eigenvalues --   -0.76172  -0.75208  -0.52664  -0.52444  -0.41847
 Alpha virt. eigenvalues --   -0.28322  -0.28189  -0.26798  -0.11131  -0.09770
 Alpha virt. eigenvalues --   -0.08716  -0.08455  -0.07890  -0.06893  -0.05643
 Alpha virt. eigenvalues --   -0.05615  -0.05144  -0.02778   0.13103   0.13882

  Beta  occ. eigenvalues --  -67.26545 -67.26545  -5.80891  -5.80889  -4.11921
  Beta  occ. eigenvalues --   -4.11921  -4.11392  -4.11392  -4.11214  -4.11214
  Beta  occ. eigenvalues --   -0.74222  -0.73578  -0.52064  -0.51617
  Beta virt. eigenvalues --   -0.28227  -0.27899  -0.26343  -0.23033  -0.13412
  Beta virt. eigenvalues --   -0.10453  -0.09002  -0.08692  -0.08368  -0.06732
  Beta virt. eigenvalues --   -0.05562  -0.05385  -0.05303  -0.02764   0.12064

 Mulliken charges and spin densities:
               1          2
     1  Si   0.579450   0.510384
     2  Si   0.579467   0.510368
     3  H   -0.079456  -0.010376
     4  H   -0.079462  -0.010376
 Sum of Mulliken charges =   1.00000   1.00000

 Dipole moment (field-independent basis, Debye):
    X=             -0.0000    Y=              0.0000    Z=             -0.0000  Tot=              0.0000
 Quadrupole moment (field-independent basis, Debye-Ang):
   XX=             -0.5161   YY=            -27.6146   ZZ=            -19.8751
   XY=              2.1538   XZ=              0.0000   YZ=             -0.0000

 Normal termination of Gaussian 16 at Mon Apr 21 20:41:30 2025.
