 Gaussian 16, Revision A.03,
 Gaussian 16:  ES64L-G16RevA.03 25-Dec-2016

 --------------------------------------------
 #p opt UM062X/6-311+G** nosymm int=superfine
 --------------------------------------------

 -------------------
 Title Card Required
 -------------------
 Symbolic Z-matrix:
 Charge =  0 Multiplicity = 1

 SCF Done:  E(UM062X) =  -83.1559549473     A.U. after   10 cycles
 SCF Done:  E(UM062X) =  -83.1634480958     A.U. after    9 cycles
 SCF Done:  E(UM062X) =  -83.1639141828     A.U. after    9 cycles
 SCF Done:  E(UM062X) =  -83.1639162520     A.U. after    7 cycles
 SCF Done:  E(UM062X) =  -83.1639173113     A.U. after    7 cycles
 Optimization completed.
    -- Stationary point found.

                          Input orientation:
 ---------------------------------------------------------------------
 Center     Atomic      Atomic             Coordinates (Angstroms)
 Number     Number       Type             X           Y           Z
 ---------------------------------------------------------------------
      1          5           0       -1.152429    0.000000    0.000000
      2          7           0        1.152429    0.000000    0.000000
      3          1           0        1.498211   -0.952058   -0.000001
      4          1           0       -1.271858   -0.593269    1.027560
      5          1           0        1.497979    0.476132   -0.824548
      6          1           0        1.497970    0.476127    0.824555
      7          1           0       -1.271830    1.186531    0.000011
      8          1           0       -1.271861   -0.593249   -1.027571
 ---------------------------------------------------------------------

 Alpha  occ. eigenvalues --  -14.77068  -7.01066  -0.99693  -0.57631  -0.57631
 Alpha  occ. eigenvalues --   -0.55455  -0.38129  -0.36955  -0.36955
 Alpha virt. eigenvalues --   -0.00158   0.03310   0.04738   0.04738   0.08214
 Alpha virt. eigenvalues --    0.10124   0.11046   0.11046   0.16373   0.16374
 Alpha virt. eigenvalues --    0.17239   0.20757   0.20758   0.23594   0.30460

  Beta  occ. eigenvalues --  -14.77068  -7.01066  -0.99693  -0.57631  -0.57631
  Beta  occ. eigenvalues --   -0.55455  -0.38129  -0.36955  -0.36955
  Beta virt. eigenvalues --   -0.00158   0.03310   0.04738   0.04738   0.08214
  Beta virt. eigenvalues --    0.10124   0.11046   0.11046   0.16373   0.16374
  Beta virt. eigenvalues --    0.17239   0.20757   0.20758   0.23594   0.30460

 Mulliken charges and spin densities:
               1          2
     1  B   -0.022116  -0.000000
     2  N   -0.715325  -0.000000
     3  H    0.275464  -0.000000
     4  H   -0.029651   0.000000
     5  H    0.275468   0.000000
     6  H    0.275468   0.000000
     7  H   -0.029658   0.000000
     8  H   -0.029650   0.000000
 Sum of Mulliken charges =  -0.00000  -0.00000

 Dipole moment (field-independent basis, Debye):
    X=              3.5492    Y=              0.0002    Z=              0.0000  Tot=              3.5492
 Quadrupole moment (field-independent basis, Debye-Ang):
   XX=            -13.9127   YY=            -15.8944   ZZ=            -15.8945
   XY=             -0.0001   XZ=             -0.0000   YZ=             -0.0000

 Normal termination of Gaussian 16 at Mon Apr 21 17:34:45 2025.
