 Gaussian 16, Revision A.03,
 Gaussian 16:  ES64L-G16RevA.03 25-Dec-2016

 --------------------------------------------
 #p opt UM062X/6-311+G** nosymm int=superfine
 --------------------------------------------

 -------------------
 Title Card Required
 -------------------
 Symbolic Z-matrix:
 Charge =  0 Multiplicity = 1

 SCF Done:  E(UM062X) =  -114.150496377     A.U. after   15 cycles
 SCF Done:  E(UM062X) =  -114.150694931     A.U. after   10 cycles
 SCF Done:  E(UM062X) =  -114.150696511     A.U. after    9 cycles
 SCF Done:  E(UM062X) =  -114.150697112     A.U. after   11 cycles
 Optimization completed.
    -- Stationary point found.

                          Input orientation:
 ---------------------------------------------------------------------
 Center     Atomic      Atomic             Coordinates (Angstroms)
 Number     Number       Type             X           Y           Z
 ---------------------------------------------------------------------
      1          6           0       -1.148311    0.000000    0.000000
      2          8           0        1.148311    0.000000    0.000000
      3          1           0       -1.732121   -0.924231   -0.000189
      4          1           0       -1.732124    0.924229   -0.000189
 ---------------------------------------------------------------------

 Alpha  occ. eigenvalues --  -19.65350 -10.70721  -0.96752  -0.82034  -0.56881
 Alpha  occ. eigenvalues --   -0.38036  -0.34652  -0.34411
 Alpha virt. eigenvalues --   -0.13903  -0.08505   0.00506   0.04623   0.06481
 Alpha virt. eigenvalues --    0.07033   0.14796   0.15971   0.20822   0.23590
 Alpha virt. eigenvalues --    0.26530   0.32798   0.41556   0.41767   0.53860

  Beta  occ. eigenvalues --  -19.65350 -10.70721  -0.96752  -0.82034  -0.56881
  Beta  occ. eigenvalues --   -0.38036  -0.34652  -0.34411
  Beta virt. eigenvalues --   -0.13903  -0.08505   0.00506   0.04623   0.06481
  Beta virt. eigenvalues --    0.07033   0.14796   0.15971   0.20822   0.23590
  Beta virt. eigenvalues --    0.26530   0.32798   0.41556   0.41767   0.53860

 Mulliken charges and spin densities:
               1          2
     1  C   -0.135711  -0.000000
     2  O   -0.252568   0.000000
     3  H    0.194139  -0.000000
     4  H    0.194139   0.000000
 Sum of Mulliken charges =  -0.00000  -0.00000

 Dipole moment (field-independent basis, Debye):
    X=             -5.2009    Y=             -0.0000    Z=             -0.0005  Tot=              5.2009
 Quadrupole moment (field-independent basis, Debye-Ang):
   XX=             -8.4977   YY=            -12.2662   ZZ=            -12.6453
   XY=             -0.0000   XZ=             -0.0002   YZ=              0.0000

 Normal termination of Gaussian 16 at Mon Apr 21 18:48:40 2025.
