 Gaussian 16, Revision A.03,
 Gaussian 16:  ES64L-G16RevA.03 25-Dec-2016

 --------------------------------------------
 #p opt UM062X/6-311+G** nosymm int=superfine
 --------------------------------------------

 -------------------
 Title Card Required
 -------------------
 Symbolic Z-matrix:
 Charge =  0 Multiplicity = 1

 SCF Done:  E(UM062X) =  -92.8144983058     A.U. after   14 cycles
 SCF Done:  E(UM062X) =  -92.8164413514     A.U. after   12 cycles
 SCF Done:  E(UM062X) =  -92.8164515210     A.U. after   11 cycles
 Optimization completed.
    -- Stationary point found.

                          Input orientation:
 ---------------------------------------------------------------------
 Center     Atomic      Atomic             Coordinates (Angstroms)
 Number     Number       Type             X           Y           Z
 ---------------------------------------------------------------------
      1          6           0       -2.072395    0.000000    0.000000
      2          7           0        2.072395    0.000000    0.000000
      3          1           0       -3.197471    0.000000    0.000000
 ---------------------------------------------------------------------

 Alpha  occ. eigenvalues --  -14.80956 -10.76524  -0.80541  -0.75892  -0.45737
 Alpha  occ. eigenvalues --   -0.25633  -0.25633
 Alpha virt. eigenvalues --   -0.18688  -0.18688  -0.07544  -0.00208   0.05902
 Alpha virt. eigenvalues --    0.05902   0.07728   0.12435   0.15321   0.17364
 Alpha virt. eigenvalues --    0.17364   0.22754   0.41392   0.51741   0.51741

  Beta  occ. eigenvalues --  -14.80956 -10.76524  -0.80541  -0.75892  -0.45737
  Beta  occ. eigenvalues --   -0.25633  -0.25633
  Beta virt. eigenvalues --   -0.18688  -0.18688  -0.07544  -0.00208   0.05902
  Beta virt. eigenvalues --    0.05902   0.07728   0.12435   0.15321   0.17364
  Beta virt. eigenvalues --    0.17364   0.22754   0.41392   0.51741   0.51741

 Mulliken charges and spin densities:
               1          2
     1  C    0.094025   0.000000
     2  N   -0.261066  -0.000000
     3  H    0.167041  -0.000000
 Sum of Mulliken charges =  -0.00000  -0.00000

 Dipole moment (field-independent basis, Debye):
    X=             -6.9900    Y=             -0.0000    Z=             -0.0000  Tot=              6.9900
 Quadrupole moment (field-independent basis, Debye-Ang):
   XX=             -3.8145   YY=            -14.1855   ZZ=            -14.1855
   XY=              0.0000   XZ=              0.0000   YZ=              0.0000

 Normal termination of Gaussian 16 at Mon Apr 21 18:40:21 2025.
