 Gaussian 16, Revision A.03,
 Gaussian 16:  ES64L-G16RevA.03 25-Dec-2016

 --------------------------------------------
 #p opt UM062X/6-311+G** nosymm int=superfine
 --------------------------------------------

 -------------------
 Title Card Required
 -------------------
 Symbolic Z-matrix:
 Charge =  0 Multiplicity = 1

 SCF Done:  E(UM062X) =  -94.4825846016     A.U. after   11 cycles
 SCF Done:  E(UM062X) =  -94.4886448336     A.U. after   11 cycles
 SCF Done:  E(UM062X) =  -94.4889858545     A.U. after   10 cycles
 SCF Done:  E(UM062X) =  -94.4829932083     A.U. after   12 cycles
 SCF Done:  E(UM062X) =  -94.4890263571     A.U. after   10 cycles
 SCF Done:  E(UM062X) =  -94.4873031077     A.U. after   12 cycles
 SCF Done:  E(UM062X) =  -94.4890558728     A.U. after    9 cycles
 SCF Done:  E(UM062X) =  -94.4890560728     A.U. after    8 cycles
 Optimization completed.
    -- Stationary point found.

                          Input orientation:
 ---------------------------------------------------------------------
 Center     Atomic      Atomic             Coordinates (Angstroms)
 Number     Number       Type             X           Y           Z
 ---------------------------------------------------------------------
      1          6           0       -0.856637    0.000000    0.000000
      2          7           0        0.856637    0.000000    0.000000
      3          1           0       -1.390736   -0.940467   -0.019851
      4          1           0        1.000848   -1.018470   -0.021624
      5          1           0       -1.298183    0.984599    0.021060
 ---------------------------------------------------------------------

 Alpha  occ. eigenvalues --  -14.80146 -10.64254  -0.91552  -0.75139  -0.55091
 Alpha  occ. eigenvalues --   -0.46162  -0.38023  -0.32732
 Alpha virt. eigenvalues --   -0.07026   0.01946   0.02820   0.04904   0.07662
 Alpha virt. eigenvalues --    0.11539   0.14734   0.16026   0.16264   0.17592
 Alpha virt. eigenvalues --    0.21142   0.23662   0.26569   0.42877   0.45374

  Beta  occ. eigenvalues --  -14.80146 -10.64254  -0.91552  -0.75139  -0.55091
  Beta  occ. eigenvalues --   -0.46162  -0.38023  -0.32732
  Beta virt. eigenvalues --   -0.07026   0.01946   0.02820   0.04904   0.07662
  Beta virt. eigenvalues --    0.11539   0.14734   0.16026   0.16264   0.17592
  Beta virt. eigenvalues --    0.21142   0.23662   0.26569   0.42877   0.45374

 Mulliken charges and spin densities:
               1          2
     1  C   -0.296998   0.000000
     2  N   -0.274840  -0.000000
     3  H    0.182498  -0.000000
     4  H    0.195085   0.000000
     5  H    0.194255   0.000000
 Sum of Mulliken charges =  -0.00000   0.00000

 Dipole moment (field-independent basis, Debye):
    X=             -2.3408    Y=             -1.4723    Z=             -0.0310  Tot=              2.7655
 Quadrupole moment (field-independent basis, Debye-Ang):
   XX=            -12.5883   YY=            -11.3796   ZZ=            -15.1681
   XY=             -1.9156   XZ=             -0.0409   YZ=              0.0805

 Normal termination of Gaussian 16 at Mon Apr 21 18:21:45 2025.
