 Gaussian 16, Revision A.03,
 Gaussian 16:  ES64L-G16RevA.03 25-Dec-2016

 ---------------------------------------
 #p UM062X/6-311+G** force int=superfine
 ---------------------------------------

 -------------------
 Title Card Required
 -------------------
 Symbolic Z-matrix:
 Charge =  1 Multiplicity = 2

                         Standard orientation:
 ---------------------------------------------------------------------
 Center     Atomic      Atomic             Coordinates (Angstroms)
 Number     Number       Type             X           Y           Z
 ---------------------------------------------------------------------
      1          6           0        0.984404    0.000002    0.000052
      2          6           0       -0.984404   -0.000012   -0.000051
      3          1           0       -1.128883    0.111871    1.070393
      4          1           0        1.128169    0.983091    0.438381
      5          1           0       -1.128344   -0.983032   -0.438475
      6          1           0       -1.128191    0.871151   -0.632242
      7          1           0        1.128892   -0.111947   -1.070383
      8          1           0        1.128353   -0.871078    0.632318
 ---------------------------------------------------------------------

 SCF Done:  E(UM062X) =  -79.3691921862     A.U. after    9 cycles

 The electronic state is 2-A.
 Alpha  occ. eigenvalues --  -10.86109 -10.86097  -1.11461  -1.01247  -0.79185
 Alpha  occ. eigenvalues --   -0.79183  -0.73491  -0.73491  -0.64204
 Alpha virt. eigenvalues --   -0.22337  -0.16624  -0.11277  -0.11276  -0.09792
 Alpha virt. eigenvalues --   -0.07397  -0.06470  -0.06469  -0.05612  -0.05610
 Alpha virt. eigenvalues --   -0.01767   0.01530   0.01533   0.04143   0.07438

  Beta  occ. eigenvalues --  -10.85888 -10.85888  -1.07863  -0.98191  -0.78154
  Beta  occ. eigenvalues --   -0.78153  -0.72663  -0.72662
  Beta virt. eigenvalues --   -0.40411  -0.16635  -0.16179  -0.11178  -0.11177
  Beta virt. eigenvalues --   -0.07710  -0.07580  -0.06662  -0.06661  -0.05184
  Beta virt. eigenvalues --   -0.05182  -0.00780   0.02218   0.02221   0.04677

 Mulliken charges and spin densities:
               1          2
     1  C   -0.321165   0.543415
     2  C   -0.321165   0.543415
     3  H    0.273729  -0.014501
     4  H    0.273714  -0.014454
     5  H    0.273722  -0.014458
     6  H    0.273714  -0.014456
     7  H    0.273729  -0.014502
     8  H    0.273722  -0.014459
 Sum of Mulliken charges =   1.00000   1.00000

 Dipole moment (field-independent basis, Debye):
    X=              0.0000    Y=              0.0000    Z=             -0.0000  Tot=              0.0000
 Quadrupole moment (field-independent basis, Debye-Ang):
   XX=             -6.6454   YY=            -10.7400   ZZ=            -10.7403
   XY=             -0.0000   XZ=             -0.0003   YZ=             -0.0000

 Normal termination of Gaussian 16 at Wed Nov 13 13:43:30 2024.
