 Gaussian 16, Revision A.03,
 Gaussian 16:  ES64L-G16RevA.03 25-Dec-2016

 ---------------------------------------
 #p UM062X/6-311+G** force int=superfine
 ---------------------------------------

 -------------------
 Title Card Required
 -------------------
 Symbolic Z-matrix:
 Charge =  1 Multiplicity = 2

                         Standard orientation:
 ---------------------------------------------------------------------
 Center     Atomic      Atomic             Coordinates (Angstroms)
 Number     Number       Type             X           Y           Z
 ---------------------------------------------------------------------
      1          6           0        0.000000    0.000000    0.683477
      2          6           0        0.000000    0.000000   -0.683477
      3          1           0        0.000000    0.000000    1.768364
      4          1           0        0.000000    0.000000   -1.768364
 ---------------------------------------------------------------------

 SCF Done:  E(UM062X) =  -76.8797008426     A.U. after    9 cycles

 Unable to determine electronic state:  an orbital has unidentified symmetry.
 Alpha  occ. eigenvalues --  -10.96220 -10.96112  -1.18532  -0.97858  -0.88474
 Alpha  occ. eigenvalues --   -0.69715  -0.67238
 Alpha virt. eigenvalues --   -0.30436  -0.28415  -0.17387  -0.14414  -0.11305
 Alpha virt. eigenvalues --   -0.09919  -0.09674  -0.08321  -0.05022  -0.04633
 Alpha virt. eigenvalues --    0.02168   0.04453   0.13085   0.19771   0.30386

  Beta  occ. eigenvalues --  -10.95981 -10.95894  -1.13997  -0.96230  -0.87926
  Beta  occ. eigenvalues --   -0.64870
  Beta virt. eigenvalues --   -0.44414  -0.26746  -0.23433  -0.16000  -0.15559
  Beta virt. eigenvalues --   -0.11512  -0.10217  -0.09960  -0.08064  -0.04619
  Beta virt. eigenvalues --   -0.04117   0.01739   0.04639   0.13672   0.20671

 Mulliken charges and spin densities:
               1          2
     1  C    0.172559   0.519737
     2  C    0.172559   0.519737
     3  H    0.327441  -0.019737
     4  H    0.327441  -0.019737
 Sum of Mulliken charges =   1.00000   1.00000

 Dipole moment (field-independent basis, Debye):
    X=              0.0000    Y=             -0.0000    Z=             -0.0000  Tot=              0.0000
 Quadrupole moment (field-independent basis, Debye-Ang):
   XX=             -9.9469   YY=            -11.8471   ZZ=              0.3975
   XY=              0.0000   XZ=             -0.0000   YZ=              0.0000

 Normal termination of Gaussian 16 at Tue Nov 19 13:32:31 2024.
