 Gaussian 16, Revision A.03,
 Gaussian 16:  ES64L-G16RevA.03 25-Dec-2016

 --------------------------------------------
 #p opt UM062X/6-311+G** nosymm int=superfine
 --------------------------------------------

 -------------------
 Title Card Required
 -------------------
 Symbolic Z-matrix:
 Charge =  1 Multiplicity = 2

 SCF Done:  E(UM062X) =  -79.3440476597     A.U. after   10 cycles
 SCF Done:  E(UM062X) =  -79.3440492757     A.U. after    7 cycles
 Optimization completed.
    -- Stationary point found.

                          Input orientation:
 ---------------------------------------------------------------------
 Center     Atomic      Atomic             Coordinates (Angstroms)
 Number     Number       Type             X           Y           Z
 ---------------------------------------------------------------------
      1          6           0       -1.440939    0.000000    0.000000
      2          6           0        1.440939    0.000000    0.000000
      3          1           0        1.498468   -0.936920    0.542256
      4          1           0       -1.497282   -0.938034   -0.540451
      5          1           0        1.497974    0.938121    0.540228
      6          1           0        1.497323   -0.001152   -1.082581
      7          1           0       -1.498502    0.937005   -0.542106
      8          1           0       -1.497972    0.000926    1.082548
 ---------------------------------------------------------------------

 Alpha  occ. eigenvalues --  -10.85256 -10.85253  -1.04656  -1.02634  -0.75149
 Alpha  occ. eigenvalues --   -0.75149  -0.74139  -0.74139  -0.53825
 Alpha virt. eigenvalues --   -0.34546  -0.14410  -0.10382  -0.10382  -0.10106
 Alpha virt. eigenvalues --   -0.06214  -0.06214  -0.05618  -0.03172  -0.02671
 Alpha virt. eigenvalues --   -0.02668   0.01418   0.01420   0.05277   0.07537

  Beta  occ. eigenvalues --  -10.85060 -10.85060  -1.01659  -1.00248  -0.74557
  Beta  occ. eigenvalues --   -0.74556  -0.73630  -0.73629
  Beta virt. eigenvalues --   -0.32881  -0.24959  -0.15450  -0.11123  -0.11123
  Beta virt. eigenvalues --   -0.09840  -0.06484  -0.06484  -0.05679  -0.02816
  Beta virt. eigenvalues --   -0.02814  -0.02349   0.01752   0.01754   0.06078

 Mulliken charges and spin densities:
               1          2
     1  C   -0.275258   0.570975
     2  C   -0.275259   0.570977
     3  H    0.258448  -0.023654
     4  H    0.258400  -0.023649
     5  H    0.258427  -0.023652
     6  H    0.258383  -0.023670
     7  H    0.258449  -0.023654
     8  H    0.258409  -0.023672
 Sum of Mulliken charges =   1.00000   1.00000

 Dipole moment (field-independent basis, Debye):
    X=             -0.0000    Y=             -0.0000    Z=             -0.0001  Tot=              0.0001
 Quadrupole moment (field-independent basis, Debye-Ang):
   XX=             -1.2094   YY=            -11.0053   ZZ=            -11.0055
   XY=             -0.0013   XZ=              0.0008   YZ=             -0.0000

 Normal termination of Gaussian 16 at Wed Nov 13 12:33:57 2024.
