 Gaussian 16, Revision A.03,
 Gaussian 16:  ES64L-G16RevA.03 25-Dec-2016

 --------------------------------------------
 #p opt UM062X/6-311+G** nosymm int=superfine
 --------------------------------------------

 -------------------
 Title Card Required
 -------------------
 Symbolic Z-matrix:
 Charge =  0 Multiplicity = 1

 SCF Done:  E(UM062X) =  -683.648349214     A.U. after   12 cycles
 SCF Done:  E(UM062X) =  -683.649223117     A.U. after   10 cycles
 SCF Done:  E(UM062X) =  -683.649651370     A.U. after   10 cycles
 SCF Done:  E(UM062X) =  -683.649651883     A.U. after   10 cycles
 Optimization completed.
    -- Stationary point found.

                          Input orientation:
 ---------------------------------------------------------------------
 Center     Atomic      Atomic             Coordinates (Angstroms)
 Number     Number       Type             X           Y           Z
 ---------------------------------------------------------------------
      1         15           0       -1.759490    0.000000    0.000000
      2         15           0        1.759490    0.000000    0.000000
      3          1           0       -1.667856   -1.420166   -0.000000
      4          1           0        1.667856    1.420166   -0.000000
 ---------------------------------------------------------------------

 Alpha  occ. eigenvalues --  -78.08490 -78.08490  -6.90460  -6.90459  -5.01869
 Alpha  occ. eigenvalues --   -5.01869  -5.01868  -5.01868  -5.01673  -5.01673
 Alpha  occ. eigenvalues --   -0.69092  -0.67501  -0.40641  -0.40192  -0.27812
 Alpha  occ. eigenvalues --   -0.25066
 Alpha virt. eigenvalues --   -0.15828  -0.12633   0.01985   0.03086   0.03746
 Alpha virt. eigenvalues --    0.04650   0.05322   0.05876   0.06550   0.08159
 Alpha virt. eigenvalues --    0.08694   0.12043   0.27706   0.29974   0.30158

  Beta  occ. eigenvalues --  -78.08490 -78.08490  -6.90460  -6.90459  -5.01869
  Beta  occ. eigenvalues --   -5.01869  -5.01868  -5.01868  -5.01673  -5.01673
  Beta  occ. eigenvalues --   -0.69092  -0.67501  -0.40641  -0.40192  -0.27812
  Beta  occ. eigenvalues --   -0.25066
  Beta virt. eigenvalues --   -0.15828  -0.12633   0.01985   0.03086   0.03746
  Beta virt. eigenvalues --    0.04650   0.05322   0.05876   0.06550   0.08159
  Beta virt. eigenvalues --    0.08694   0.12043   0.27706   0.29974   0.30158

 Mulliken charges and spin densities:
               1          2
     1  P    0.005872  -0.000000
     2  P    0.005872   0.000000
     3  H   -0.005872   0.000000
     4  H   -0.005872  -0.000000
 Sum of Mulliken charges =  -0.00000  -0.00000

 Dipole moment (field-independent basis, Debye):
    X=              0.0000    Y=             -0.0000    Z=             -0.0000  Tot=              0.0000
 Quadrupole moment (field-independent basis, Debye-Ang):
   XX=            -26.9579   YY=            -28.3879   ZZ=            -30.8302
   XY=              2.9452   XZ=              0.0000   YZ=              0.0000

 Normal termination of Gaussian 16 at Mon Apr 21 21:13:19 2025.
