 Gaussian 16, Revision A.03,
 Gaussian 16:  ES64L-G16RevA.03 25-Dec-2016

 --------------------------------------------
 #p opt UM062X/6-311+G** nosymm int=superfine
 --------------------------------------------

 -------------------
 Title Card Required
 -------------------
 Symbolic Z-matrix:
 Charge =  0 Multiplicity = 1

 SCF Done:  E(UM062X) =  -581.140593207     A.U. after    9 cycles
 SCF Done:  E(UM062X) =  -581.160588644     A.U. after    8 cycles
 SCF Done:  E(UM062X) =  -581.173046872     A.U. after    8 cycles
 SCF Done:  E(UM062X) =  -581.173066907     A.U. after    7 cycles
 Optimization completed.
    -- Stationary point found.

                          Input orientation:
 ---------------------------------------------------------------------
 Center     Atomic      Atomic             Coordinates (Angstroms)
 Number     Number       Type             X           Y           Z
 ---------------------------------------------------------------------
      1         14           0       -2.112518    0.000000    0.000000
      2         14           0        2.112518    0.000000    0.000000
      3          1           0       -3.178796   -1.082675    0.000134
      4          1           0        3.178796    1.082675   -0.000450
      5          1           0       -3.178801    1.082671    0.000366
      6          1           0        3.178801   -1.082670    0.000950
 ---------------------------------------------------------------------

 Alpha  occ. eigenvalues --  -67.01132 -67.01132  -5.55862  -5.55860  -3.87102
 Alpha  occ. eigenvalues --   -3.87102  -3.86562  -3.86562  -3.86425  -3.86425
 Alpha  occ. eigenvalues --   -0.57179  -0.57014  -0.37688  -0.37625  -0.29699
 Alpha  occ. eigenvalues --   -0.26468
 Alpha virt. eigenvalues --   -0.08342  -0.07301   0.02096   0.02267   0.03131
 Alpha virt. eigenvalues --    0.04574   0.05826   0.06131   0.06401   0.06736
 Alpha virt. eigenvalues --    0.08891   0.09309   0.11572   0.14161   0.28997

  Beta  occ. eigenvalues --  -67.01132 -67.01132  -5.55862  -5.55860  -3.87102
  Beta  occ. eigenvalues --   -3.87102  -3.86562  -3.86562  -3.86425  -3.86425
  Beta  occ. eigenvalues --   -0.57179  -0.57014  -0.37688  -0.37625  -0.29699
  Beta  occ. eigenvalues --   -0.26468
  Beta virt. eigenvalues --   -0.08342  -0.07301   0.02096   0.02267   0.03131
  Beta virt. eigenvalues --    0.04574   0.05826   0.06131   0.06401   0.06736
  Beta virt. eigenvalues --    0.08891   0.09309   0.11572   0.14161   0.28997

 Mulliken charges and spin densities:
               1          2
     1  Si   0.320379  -0.000000
     2  Si   0.320379  -0.000000
     3  H   -0.160189   0.000000
     4  H   -0.160189   0.000000
     5  H   -0.160189   0.000000
     6  H   -0.160189   0.000000
 Sum of Mulliken charges =  -0.00000  -0.00000

 Dipole moment (field-independent basis, Debye):
    X=              0.0000    Y=              0.0000    Z=              0.0001  Tot=              0.0001
 Quadrupole moment (field-independent basis, Debye-Ang):
   XX=            -36.3769   YY=            -32.7904   ZZ=            -24.4043
   XY=             -0.0000   XZ=              0.0000   YZ=              0.0023

 Normal termination of Gaussian 16 at Mon Apr 21 20:34:09 2025.
