 Gaussian 16, Revision A.03,
 Gaussian 16:  ES64L-G16RevA.03 25-Dec-2016

 ---------------------------------------------------------
 #p opt UM062X/6-311+G** nosymm int=superfine SCF=NoVarAcc
 ---------------------------------------------------------

 -------------------
 Title Card Required
 -------------------
 Symbolic Z-matrix:
 Charge =  1 Multiplicity = 2

 SCF Done:  E(UM062X) =  -76.5842375356     A.U. after   20 cycles
 SCF Done:  E(UM062X) =  -76.5845914003     A.U. after   74 cycles
 Optimization completed.
    -- Stationary point found.

                          Input orientation:
 ---------------------------------------------------------------------
 Center     Atomic      Atomic             Coordinates (Angstroms)
 Number     Number       Type             X           Y           Z
 ---------------------------------------------------------------------
      1          6           0       -6.382160    0.000000    0.000000
      2          6           0        6.382160    0.000000    0.000000
      3          1           0       -7.500165   -0.000000    0.000000
      4          1           0        7.500164    0.000000    0.000000
 ---------------------------------------------------------------------

 Alpha  occ. eigenvalues --  -10.91090 -10.91090  -0.94884  -0.94882  -0.59908
 Alpha  occ. eigenvalues --   -0.59907  -0.42140
 Alpha virt. eigenvalues --   -0.39916  -0.29825  -0.29825  -0.08834  -0.08833
 Alpha virt. eigenvalues --   -0.03531  -0.03530  -0.03363  -0.03363  -0.03331
 Alpha virt. eigenvalues --   -0.03321   0.02579   0.02582   0.30824   0.30830

  Beta  occ. eigenvalues --  -10.90675 -10.90675  -0.92522  -0.92522  -0.58516
  Beta  occ. eigenvalues --   -0.58516
  Beta virt. eigenvalues --   -0.27942  -0.27942  -0.26310  -0.26310  -0.09036
  Beta virt. eigenvalues --   -0.09036  -0.03343  -0.03333  -0.02735  -0.02734
  Beta virt. eigenvalues --   -0.01809  -0.01809   0.04384   0.04387   0.30162

 Mulliken charges and spin densities:
               1          2
     1  C    0.298714   0.515465
     2  C    0.298714   0.515465
     3  H    0.201286  -0.015465
     4  H    0.201286  -0.015465
 Sum of Mulliken charges =   1.00000   1.00000

 Dipole moment (field-independent basis, Debye):
    X=             -0.0000    Y=             -0.0000    Z=             -0.0000  Tot=              0.0000
 Quadrupole moment (field-independent basis, Debye-Ang):
   XX=            234.4994   YY=             -9.6826   ZZ=            -11.2309
   XY=             -0.0000   XZ=              0.0000   YZ=              0.6182

 Normal termination of Gaussian 16 at Tue Dec  3 17:44:32 2024.
