 Gaussian 16, Revision A.03,
 Gaussian 16:  ES64L-G16RevA.03 25-Dec-2016

 --------------------------------------------
 #p opt UM062X/6-311+G** nosymm int=superfine
 --------------------------------------------

 -------------------
 Title Card Required
 -------------------
 Symbolic Z-matrix:
 Charge =  0 Multiplicity = 1

 SCF Done:  E(UM062X) =  -77.0461097808     A.U. after    9 cycles
 SCF Done:  E(UM062X) =  -77.0896193541     A.U. after    9 cycles
 SCF Done:  E(UM062X) =  -77.1432681610     A.U. after   10 cycles
 SCF Done:  E(UM062X) =  -77.1436098727     A.U. after    8 cycles
 SCF Done:  E(UM062X) =  -77.1436104684     A.U. after    7 cycles
 Optimization completed.
    -- Stationary point found.

                          Input orientation:
 ---------------------------------------------------------------------
 Center     Atomic      Atomic             Coordinates (Angstroms)
 Number     Number       Type             X           Y           Z
 ---------------------------------------------------------------------
      1          6           0       -0.802011    0.000000    0.000000
      2          6           0        0.802011    0.000000    0.000000
      3          1           0       -1.875797    0.000000   -0.000000
      4          1           0        1.875773    0.000000   -0.000000
 ---------------------------------------------------------------------

 Alpha  occ. eigenvalues --  -10.64422 -10.64383  -0.78601  -0.69003  -0.54121
 Alpha  occ. eigenvalues --   -0.30955  -0.30955
 Alpha virt. eigenvalues --   -0.03032  -0.03032   0.01082   0.02345   0.07917
 Alpha virt. eigenvalues --    0.08304   0.08304   0.09469   0.11338   0.11338
 Alpha virt. eigenvalues --    0.17849   0.22907   0.29159   0.46522   0.58714

  Beta  occ. eigenvalues --  -10.64422 -10.64383  -0.78601  -0.69003  -0.54121
  Beta  occ. eigenvalues --   -0.30955  -0.30955
  Beta virt. eigenvalues --   -0.03032  -0.03032   0.01082   0.02345   0.07917
  Beta virt. eigenvalues --    0.08304   0.08304   0.09469   0.11338   0.11338
  Beta virt. eigenvalues --    0.17849   0.22907   0.29159   0.46522   0.58714

 Mulliken charges and spin densities:
               1          2
     1  C   -0.236693   0.000000
     2  C   -0.236695  -0.000000
     3  H    0.236697   0.000000
     4  H    0.236690  -0.000000
 Sum of Mulliken charges =  -0.00000  -0.00000

 Dipole moment (field-independent basis, Debye):
    X=             -0.0000    Y=              0.0000    Z=             -0.0000  Tot=              0.0000
 Quadrupole moment (field-independent basis, Debye-Ang):
   XX=             -5.3552   YY=            -15.4775   ZZ=            -15.4775
   XY=             -0.0000   XZ=             -0.0000   YZ=             -0.0000

 Normal termination of Gaussian 16 at Tue Dec  3 20:11:52 2024.
