 Gaussian 16, Revision A.03,
 Gaussian 16:  ES64L-G16RevA.03 25-Dec-2016

 --------------------------------------------
 #p opt UM062X/6-311+G** nosymm int=superfine
 --------------------------------------------

 -------------------
 Title Card Required
 -------------------
 Symbolic Z-matrix:
 Charge =  0 Multiplicity = 1

 SCF Done:  E(UM062X) =  -78.4611237321     A.U. after    8 cycles
 SCF Done:  E(UM062X) =  -78.4836159364     A.U. after    8 cycles
 SCF Done:  E(UM062X) =  -78.4906111447     A.U. after    8 cycles
 SCF Done:  E(UM062X) =  -78.4911256030     A.U. after    7 cycles
 SCF Done:  E(UM062X) =  -78.4911328757     A.U. after    7 cycles
 Optimization completed.
    -- Stationary point found.

                          Input orientation:
 ---------------------------------------------------------------------
 Center     Atomic      Atomic             Coordinates (Angstroms)
 Number     Number       Type             X           Y           Z
 ---------------------------------------------------------------------
      1          6           0       -0.828590    0.000000    0.000000
      2          6           0        0.828590    0.000000    0.000000
      3          1           0       -1.342398   -0.949688   -0.000000
      4          1           0       -1.342415    0.949638   -0.000000
      5          1           0        1.342398    0.949688    0.000000
      6          1           0        1.342415   -0.949638   -0.000000
 ---------------------------------------------------------------------

 Alpha  occ. eigenvalues --  -10.58285 -10.58255  -0.80395  -0.69153  -0.53101
 Alpha  occ. eigenvalues --   -0.46564  -0.43347  -0.29002
 Alpha virt. eigenvalues --   -0.02429   0.03375   0.03606   0.05358   0.07707
 Alpha virt. eigenvalues --    0.08509   0.09738   0.11901   0.15775   0.16802
 Alpha virt. eigenvalues --    0.19848   0.20837   0.24555   0.29409   0.41368

  Beta  occ. eigenvalues --  -10.58285 -10.58255  -0.80395  -0.69153  -0.53101
  Beta  occ. eigenvalues --   -0.46564  -0.43347  -0.29002
  Beta virt. eigenvalues --   -0.02429   0.03375   0.03606   0.05358   0.07707
  Beta virt. eigenvalues --    0.08509   0.09738   0.11901   0.15775   0.16802
  Beta virt. eigenvalues --    0.19848   0.20837   0.24555   0.29409   0.41368

 Mulliken charges and spin densities:
               1          2
     1  C   -0.332249   0.000000
     2  C   -0.332249  -0.000000
     3  H    0.166123   0.000000
     4  H    0.166125  -0.000000
     5  H    0.166123   0.000000
     6  H    0.166125  -0.000000
 Sum of Mulliken charges =  -0.00000   0.00000

 Dipole moment (field-independent basis, Debye):
    X=             -0.0000    Y=             -0.0000    Z=             -0.0000  Tot=              0.0000
 Quadrupole moment (field-independent basis, Debye-Ang):
   XX=            -11.8447   YY=            -12.2256   ZZ=            -17.1821
   XY=             -0.0000   XZ=              0.0000   YZ=              0.0000

 Normal termination of Gaussian 16 at Tue Nov 19 10:47:22 2024.
