 Gaussian 16, Revision A.03,
 Gaussian 16:  ES64L-G16RevA.03 25-Dec-2016

 --------------------------------------------
 #p opt UM062X/6-311+G** nosymm int=superfine
 --------------------------------------------

 -------------------
 Title Card Required
 -------------------
 Symbolic Z-matrix:
 Charge =  1 Multiplicity = 2

 SCF Done:  E(UM062X) =  -582.149894281     A.U. after   11 cycles
 SCF Done:  E(UM062X) =  -582.150428849     A.U. after    9 cycles
 SCF Done:  E(UM062X) =  -582.150507204     A.U. after    8 cycles
 Optimization completed.
    -- Stationary point found.

                          Input orientation:
 ---------------------------------------------------------------------
 Center     Atomic      Atomic             Coordinates (Angstroms)
 Number     Number       Type             X           Y           Z
 ---------------------------------------------------------------------
      1         14           0       -1.976292    0.000000    0.000000
      2         14           0        1.976292    0.000000    0.000000
      3          1           0        2.113929   -1.458361   -0.000002
      4          1           0       -2.113658   -0.729055    1.263075
      5          1           0        2.114163    0.729201   -1.262934
      6          1           0        2.113474    0.729145    1.263043
      7          1           0       -2.113954    1.458358   -0.000114
      8          1           0       -2.113954   -0.729297   -1.262902
 ---------------------------------------------------------------------

 Alpha  occ. eigenvalues --  -67.23157 -67.23157  -5.77981  -5.77979  -4.09659
 Alpha  occ. eigenvalues --   -4.09659  -4.08853  -4.08853  -4.08853  -4.08853
 Alpha  occ. eigenvalues --   -0.81963  -0.81101  -0.62113  -0.62112  -0.61830
 Alpha  occ. eigenvalues --   -0.61829  -0.43539
 Alpha virt. eigenvalues --   -0.28499  -0.13195  -0.12016  -0.10446  -0.10446
 Alpha virt. eigenvalues --   -0.09914  -0.09170  -0.09170  -0.07850  -0.07850
 Alpha virt. eigenvalues --   -0.07833  -0.06331  -0.06330  -0.04381   0.00815

  Beta  occ. eigenvalues --  -67.22897 -67.22896  -5.77906  -5.77903  -4.09046
  Beta  occ. eigenvalues --   -4.09046  -4.08764  -4.08764  -4.08764  -4.08764
  Beta  occ. eigenvalues --   -0.80071  -0.79572  -0.61934  -0.61934  -0.61657
  Beta  occ. eigenvalues --   -0.61657
  Beta virt. eigenvalues --   -0.30407  -0.22370  -0.14380  -0.12562  -0.12561
  Beta virt. eigenvalues --   -0.11021  -0.10444  -0.09598  -0.09597  -0.07397
  Beta virt. eigenvalues --   -0.07396  -0.06974  -0.06029  -0.06029  -0.04859

 Mulliken charges and spin densities:
               1          2
     1  Si   0.496785   0.549397
     2  Si   0.496785   0.549397
     3  H    0.001079  -0.016460
     4  H    0.001064  -0.016469
     5  H    0.001076  -0.016470
     6  H    0.001060  -0.016467
     7  H    0.001080  -0.016460
     8  H    0.001071  -0.016468
 Sum of Mulliken charges =   1.00000   1.00000

 Dipole moment (field-independent basis, Debye):
    X=              0.0000    Y=             -0.0000    Z=              0.0000  Tot=              0.0000
 Quadrupole moment (field-independent basis, Debye-Ang):
   XX=             -1.7639   YY=            -26.1190   ZZ=            -26.1190
   XY=              0.0001   XZ=              0.0001   YZ=              0.0000

 Normal termination of Gaussian 16 at Mon Apr 21 20:15:59 2025.
