 Gaussian 16, Revision A.03,
 Gaussian 16:  ES64L-G16RevA.03 25-Dec-2016

 --------------------------------------------
 #p opt UM062X/6-311+G** nosymm int=superfine
 --------------------------------------------

 -------------------
 Title Card Required
 -------------------
 Symbolic Z-matrix:
 Charge =  0 Multiplicity = 1

 SCF Done:  E(UM062X) =  -379.631499044     A.U. after   14 cycles
 SCF Done:  E(UM062X) =  -379.632518217     A.U. after   10 cycles
 SCF Done:  E(UM062X) =  -379.632520801     A.U. after    9 cycles
 Optimization completed.
    -- Stationary point found.

                          Input orientation:
 ---------------------------------------------------------------------
 Center     Atomic      Atomic             Coordinates (Angstroms)
 Number     Number       Type             X           Y           Z
 ---------------------------------------------------------------------
      1          6           0       -1.415377    0.000000    0.000000
      2         15           0        1.415377    0.000000    0.000000
      3          1           0       -2.530019   -0.000000    0.000000
 ---------------------------------------------------------------------

 Alpha  occ. eigenvalues --  -78.09555 -10.70374  -6.91232  -5.02999  -5.02257
 Alpha  occ. eigenvalues --   -5.02257  -0.75313  -0.62085  -0.41660  -0.25720
 Alpha  occ. eigenvalues --   -0.25720
 Alpha virt. eigenvalues --   -0.13411  -0.13411  -0.10565   0.01421   0.03955
 Alpha virt. eigenvalues --    0.05798   0.05798   0.07439   0.09277   0.09277
 Alpha virt. eigenvalues --    0.14665   0.18967   0.31706   0.32726   0.32726

  Beta  occ. eigenvalues --  -78.09555 -10.70374  -6.91232  -5.02999  -5.02257
  Beta  occ. eigenvalues --   -5.02257  -0.75313  -0.62085  -0.41660  -0.25720
  Beta  occ. eigenvalues --   -0.25720
  Beta virt. eigenvalues --   -0.13411  -0.13411  -0.10565   0.01421   0.03955
  Beta virt. eigenvalues --    0.05798   0.05798   0.07439   0.09277   0.09277
  Beta virt. eigenvalues --    0.14665   0.18967   0.31706   0.32726   0.32726

 Mulliken charges and spin densities:
               1          2
     1  C   -0.250659  -0.000001
     2  P    0.056633   0.000001
     3  H    0.194026   0.000000
 Sum of Mulliken charges =  -0.00000   0.00000

 Dipole moment (field-independent basis, Debye):
    X=             -1.4799    Y=             -0.0000    Z=              0.0000  Tot=              1.4799
 Quadrupole moment (field-independent basis, Debye-Ang):
   XX=            -11.1994   YY=            -23.7364   ZZ=            -23.7364
   XY=             -0.0000   XZ=              0.0000   YZ=             -0.0000

 Normal termination of Gaussian 16 at Mon Apr 21 19:29:21 2025.
