 Gaussian 16, Revision A.03,
 Gaussian 16:  ES64L-G16RevA.03 25-Dec-2016

 --------------------------------------------
 #p opt UM062X/6-311+G** nosymm int=superfine
 --------------------------------------------

 -------------------
 Title Card Required
 -------------------
 Symbolic Z-matrix:
 Charge =  0 Multiplicity = 1

 SCF Done:  E(UM062X) =  -81.7144727002     A.U. after   22 cycles
 SCF Done:  E(UM062X) =  -81.7223152914     A.U. after   18 cycles
 SCF Done:  E(UM062X) =  -81.7318796443     A.U. after   20 cycles
 SCF Done:  E(UM062X) =  -81.7416971212     A.U. after   17 cycles
 SCF Done:  E(UM062X) =  -81.7503131446     A.U. after   14 cycles
 SCF Done:  E(UM062X) =  -81.7534607945     A.U. after   14 cycles
 SCF Done:  E(UM062X) =  -81.7495467547     A.U. after   15 cycles
 SCF Done:  E(UM062X) =  -81.7516890627     A.U. after   15 cycles
 SCF Done:  E(UM062X) =  -81.7550847929     A.U. after   14 cycles
 SCF Done:  E(UM062X) =  -81.7527530781     A.U. after   12 cycles
 SCF Done:  E(UM062X) =  -81.7553591491     A.U. after   14 cycles
 SCF Done:  E(UM062X) =  -81.7569174486     A.U. after   13 cycles
 SCF Done:  E(UM062X) =  -81.7583179680     A.U. after   14 cycles
 SCF Done:  E(UM062X) =  -81.7585233030     A.U. after   11 cycles
 SCF Done:  E(UM062X) =  -81.7585388499     A.U. after   12 cycles
 SCF Done:  E(UM062X) =  -81.7585449793     A.U. after   11 cycles
 SCF Done:  E(UM062X) =  -81.7585468614     A.U. after   13 cycles
 Optimization completed.
    -- Stationary point found.

                          Input orientation:
 ---------------------------------------------------------------------
 Center     Atomic      Atomic             Coordinates (Angstroms)
 Number     Number       Type             X           Y           Z
 ---------------------------------------------------------------------
      1          5           0       -1.645399    0.000000    0.000000
      2          7           0        1.645399    0.000000   -0.000000
      3          1           0       -1.996559   -1.117994   -0.026048
      4          1           0        1.658660    0.803402    0.636485
      5          1           0       -1.996559    1.117987   -0.026342
      6          1           0        1.658660   -0.803261    0.636663
 ---------------------------------------------------------------------

 Alpha  occ. eigenvalues --  -14.71875  -7.17986  -0.87478  -0.62595  -0.51091
 Alpha  occ. eigenvalues --   -0.48168  -0.33423  -0.24724
 Alpha virt. eigenvalues --   -0.09311  -0.08298   0.00866   0.02843   0.04148
 Alpha virt. eigenvalues --    0.05103   0.09860   0.12024   0.13666   0.17388
 Alpha virt. eigenvalues --    0.20319   0.20853   0.21574   0.28891   0.32532

  Beta  occ. eigenvalues --  -14.71875  -7.17986  -0.87478  -0.62595  -0.51091
  Beta  occ. eigenvalues --   -0.48168  -0.33423  -0.24724
  Beta virt. eigenvalues --   -0.09311  -0.08298   0.00866   0.02843   0.04148
  Beta virt. eigenvalues --    0.05103   0.09860   0.12024   0.13666   0.17388
  Beta virt. eigenvalues --    0.20319   0.20853   0.21574   0.28891   0.32532

 Mulliken charges and spin densities:
               1          2
     1  B    0.169252  -0.000000
     2  N   -0.711578   0.000000
     3  H    0.062556  -0.000000
     4  H    0.208608  -0.000000
     5  H    0.062555  -0.000000
     6  H    0.208608  -0.000000
 Sum of Mulliken charges =  -0.00000  -0.00000

 Dipole moment (field-independent basis, Debye):
    X=             -4.7561    Y=              0.0002    Z=              1.8337  Tot=              5.0974
 Quadrupole moment (field-independent basis, Debye-Ang):
   XX=            -14.1434   YY=            -13.4290   ZZ=            -14.5374
   XY=              0.0004   XZ=              3.3691   YZ=             -0.0001

 Normal termination of Gaussian 16 at Mon Apr 21 17:52:29 2025.
