 Gaussian 16, Revision A.03,
 Gaussian 16:  ES64L-G16RevA.03 25-Dec-2016

 --------------------------------------------
 #p opt UM062X/6-311+G** nosymm int=superfine
 --------------------------------------------

 -------------------
 Title Card Required
 -------------------
 Symbolic Z-matrix:
 Charge =  0 Multiplicity = 1

 SCF Done:  E(UM062X) =  -437.168579872     A.U. after   16 cycles
 SCF Done:  E(UM062X) =  -437.170228296     A.U. after   15 cycles
 SCF Done:  E(UM062X) =  -437.170805535     A.U. after   14 cycles
 SCF Done:  E(UM062X) =  -437.170805960     A.U. after   14 cycles
 SCF Done:  E(UM062X) =  -437.170805884     A.U. after   13 cycles
 SCF Done:  E(UM062X) =  -437.170805974     A.U. after   12 cycles
 Optimization completed.
    -- Stationary point found.

                          Input orientation:
 ---------------------------------------------------------------------
 Center     Atomic      Atomic             Coordinates (Angstroms)
 Number     Number       Type             X           Y           Z
 ---------------------------------------------------------------------
      1          6           0       -1.777140    0.000000    0.000000
      2         16           0        1.777140    0.000000    0.000000
      3          1           0       -2.443137   -0.879445    0.000064
      4          1           0       -2.443986    0.878801   -0.000066
 ---------------------------------------------------------------------

 Alpha  occ. eigenvalues --  -89.92972 -10.64771  -8.28987  -6.21742  -6.20216
 Alpha  occ. eigenvalues --   -6.20213  -0.78673  -0.73149  -0.51380  -0.34529
 Alpha  occ. eigenvalues --   -0.30570  -0.30553
 Alpha virt. eigenvalues --   -0.15349  -0.11039   0.01021   0.05119   0.05356
 Alpha virt. eigenvalues --    0.06633   0.08236   0.08854   0.09296   0.14082
 Alpha virt. eigenvalues --    0.16912   0.17745   0.36314   0.36603   0.37060

  Beta  occ. eigenvalues --  -89.92972 -10.64771  -8.28987  -6.21742  -6.20216
  Beta  occ. eigenvalues --   -6.20213  -0.78673  -0.73149  -0.51380  -0.34529
  Beta  occ. eigenvalues --   -0.30570  -0.30553
  Beta virt. eigenvalues --   -0.15349  -0.11039   0.01021   0.05119   0.05356
  Beta virt. eigenvalues --    0.06633   0.08236   0.08854   0.09296   0.14082
  Beta virt. eigenvalues --    0.16912   0.17745   0.36314   0.36603   0.37060

 Mulliken charges and spin densities:
               1          2
     1  C   -0.271497  -0.000000
     2  S   -0.042808   0.000000
     3  H    0.157147  -0.000000
     4  H    0.157158   0.000000
 Sum of Mulliken charges =  -0.00000  -0.00000

 Dipole moment (field-independent basis, Debye):
    X=             -3.4258    Y=             -0.0009    Z=             -0.0000  Tot=              3.4258
 Quadrupole moment (field-independent basis, Debye-Ang):
   XX=            -11.3038   YY=            -22.3192   ZZ=            -21.8897
   XY=              0.0001   XZ=             -0.0000   YZ=              0.0000

 Normal termination of Gaussian 16 at Mon Apr 21 19:44:52 2025.
