 Gaussian 16, Revision A.03,
 Gaussian 16:  ES64L-G16RevA.03 25-Dec-2016

 --------------------------------------------
 #p opt UM062X/6-311+G** nosymm int=superfine
 --------------------------------------------

 -------------------
 Title Card Required
 -------------------
 Symbolic Z-matrix:
 Charge =  0 Multiplicity = 1

 SCF Done:  E(UM062X) =  -685.055254592     A.U. after   10 cycles
 SCF Done:  E(UM062X) =  -685.055409836     A.U. after    9 cycles
 SCF Done:  E(UM062X) =  -685.055422402     A.U. after    8 cycles
 SCF Done:  E(UM062X) =  -685.055422445     A.U. after    6 cycles
 Optimization completed.
    -- Stationary point found.

                          Input orientation:
 ---------------------------------------------------------------------
 Center     Atomic      Atomic             Coordinates (Angstroms)
 Number     Number       Type             X           Y           Z
 ---------------------------------------------------------------------
      1         15           0       -1.167217    0.000000    0.000000
      2         15           0        1.167217    0.000000    0.000000
      3          1           0        1.258993   -1.411874   -0.000162
      4          1           0       -1.258829    1.400563   -0.178416
      5          1           0        1.363619    0.101455   -1.398222
      6          1           0       -1.363462   -0.277094   -1.374264
 ---------------------------------------------------------------------

 Alpha  occ. eigenvalues --  -78.02941 -78.02940  -6.85536  -6.85532  -4.97095
 Alpha  occ. eigenvalues --   -4.97080  -4.97052  -4.97051  -4.96835  -4.96832
 Alpha  occ. eigenvalues --   -0.75988  -0.67169  -0.46023  -0.45712  -0.39977
 Alpha  occ. eigenvalues --   -0.33411  -0.30961
 Alpha virt. eigenvalues --   -0.00700   0.00826   0.03523   0.03898   0.03914
 Alpha virt. eigenvalues --    0.04768   0.04942   0.06485   0.06552   0.08132
 Alpha virt. eigenvalues --    0.10418   0.15128   0.19223   0.27980   0.29424

  Beta  occ. eigenvalues --  -78.02941 -78.02940  -6.85536  -6.85532  -4.97095
  Beta  occ. eigenvalues --   -4.97080  -4.97052  -4.97051  -4.96835  -4.96832
  Beta  occ. eigenvalues --   -0.75988  -0.67169  -0.46023  -0.45712  -0.39977
  Beta  occ. eigenvalues --   -0.33411  -0.30961
  Beta virt. eigenvalues --   -0.00700   0.00826   0.03523   0.03898   0.03914
  Beta virt. eigenvalues --    0.04768   0.04942   0.06485   0.06552   0.08132
  Beta virt. eigenvalues --    0.10418   0.15128   0.19223   0.27980   0.29424

 Mulliken charges and spin densities:
               1          2
     1  P   -0.051581   0.000000
     2  P   -0.051599  -0.000000
     3  H    0.025828   0.000000
     4  H    0.025824  -0.000000
     5  H    0.025763   0.000000
     6  H    0.025764   0.000000
 Sum of Mulliken charges =  -0.00000  -0.00000

 Dipole moment (field-independent basis, Debye):
    X=             -0.0001    Y=             -0.0837    Z=             -1.3198  Tot=              1.3225
 Quadrupole moment (field-independent basis, Debye-Ang):
   XX=            -31.1668   YY=            -28.7636   ZZ=            -29.6333
   XY=             -2.1428   XZ=              0.1355   YZ=             -0.0555

 Normal termination of Gaussian 16 at Mon Apr 21 20:44:08 2025.
