 Gaussian 16, Revision A.03,
 Gaussian 16:  ES64L-G16RevA.03 25-Dec-2016

 --------------------------------------------
 #p opt UM062X/6-311+G** nosymm int=superfine
 --------------------------------------------

 -------------------
 Title Card Required
 -------------------
 Symbolic Z-matrix:
 Charge =  0 Multiplicity = 1

 SCF Done:  E(UM062X) =  -76.9832491308     A.U. after   13 cycles
 SCF Done:  E(UM062X) =  -76.9832522290     A.U. after   13 cycles
 SCF Done:  E(UM062X) =  -76.9839072273     A.U. after   13 cycles
 SCF Done:  E(UM062X) =  -76.9840308621     A.U. after   12 cycles
 SCF Done:  E(UM062X) =  -76.9840309582     A.U. after   10 cycles
 Optimization completed.
    -- Stationary point found.

                          Input orientation:
 ---------------------------------------------------------------------
 Center     Atomic      Atomic             Coordinates (Angstroms)
 Number     Number       Type             X           Y           Z
 ---------------------------------------------------------------------
      1          6           0       -1.157625    0.000000    0.000000
      2          6           0        1.157625    0.000000    0.000000
      3          1           0       -1.165552    0.334863    1.066882
      4          1           0        1.165709    1.017659   -0.463411
 ---------------------------------------------------------------------

 Alpha  occ. eigenvalues --  -10.66468 -10.66461  -0.75219  -0.69350  -0.39720
 Alpha  occ. eigenvalues --   -0.38038  -0.29132
 Alpha virt. eigenvalues --   -0.09437  -0.08808  -0.02263   0.02739   0.06192
 Alpha virt. eigenvalues --    0.07652   0.07812   0.09930   0.10091   0.10376
 Alpha virt. eigenvalues --    0.15646   0.16582   0.20953   0.45404   0.47297

  Beta  occ. eigenvalues --  -10.66468 -10.66461  -0.75219  -0.69350  -0.39720
  Beta  occ. eigenvalues --   -0.38038  -0.29132
  Beta virt. eigenvalues --   -0.09437  -0.08808  -0.02263   0.02739   0.06192
  Beta virt. eigenvalues --    0.07652   0.07812   0.09930   0.10091   0.10376
  Beta virt. eigenvalues --    0.15646   0.16582   0.20953   0.45404   0.47297

 Mulliken charges and spin densities:
               1          2
     1  C   -0.137673  -0.000000
     2  C   -0.137706   0.000000
     3  H    0.137687  -0.000000
     4  H    0.137692   0.000000
 Sum of Mulliken charges =  -0.00000   0.00000

 Dipole moment (field-independent basis, Debye):
    X=              0.0001    Y=              1.8553    Z=              0.8277  Tot=              2.0315
 Quadrupole moment (field-independent basis, Debye-Ang):
   XX=            -17.2493   YY=            -12.9779   ZZ=            -13.1655
   XY=              1.2189   XZ=             -2.7315   YZ=              0.1046

 Normal termination of Gaussian 16 at Tue Dec  3 21:32:28 2024.
