 Gaussian 16, Revision A.03,
 Gaussian 16:  ES64L-G16RevA.03 25-Dec-2016

 --------------------------------------------
 #p opt UM062X/6-311+G** nosymm int=superfine
 --------------------------------------------

 -------------------
 Title Card Required
 -------------------
 Symbolic Z-matrix:
 Charge =  1 Multiplicity = 2

 SCF Done:  E(UM062X) =  -1615.58319520     A.U. after   23 cycles
 SCF Done:  E(UM062X) =  -1615.58125333     A.U. after   21 cycles
 SCF Done:  E(UM062X) =  -1615.58662654     A.U. after   23 cycles
 SCF Done:  E(UM062X) =  -1615.58809183     A.U. after   22 cycles
 SCF Done:  E(UM062X) =  -1615.49982046     A.U. after   27 cycles
 SCF Done:  E(UM062X) =  -1615.57944450     A.U. after   25 cycles
 SCF Done:  E(UM062X) =  -1615.58815769     A.U. after   21 cycles
 SCF Done:  E(UM062X) =  -1615.58818109     A.U. after   20 cycles
 SCF Done:  E(UM062X) =  -1615.58819387     A.U. after   21 cycles
 SCF Done:  E(UM062X) =  -1615.58824508     A.U. after   20 cycles
 SCF Done:  E(UM062X) =  -1615.58826286     A.U. after   18 cycles
 SCF Done:  E(UM062X) =  -1615.58827276     A.U. after   15 cycles
 SCF Done:  E(UM062X) =  -1615.58827946     A.U. after   19 cycles
 SCF Done:  E(UM062X) =  -1615.58828144     A.U. after   15 cycles
 SCF Done:  E(UM062X) =  -1615.58828201     A.U. after   14 cycles
 SCF Done:  E(UM062X) =  -1615.58828206     A.U. after   13 cycles
 Optimization completed.
    -- Stationary point found.

                          Input orientation:
 ---------------------------------------------------------------------
 Center     Atomic      Atomic             Coordinates (Angstroms)
 Number     Number       Type             X           Y           Z
 ---------------------------------------------------------------------
      1          6           0       -1.455162   -0.000000    0.000000
      2          6           0        1.455162    0.000000    0.000000
      3          6           0        0.000006   -2.102687    0.008675
      4          6           0        0.000002   -3.492643    0.014462
      5          6           0       -1.133504   -4.306827    0.246625
      6          6           0       -1.274801   -1.475975    0.209182
      7          6           0        0.662875   -5.702918   -0.111780
      8          1           0        1.286820   -6.575954   -0.239336
      9          6           0       -1.571225    0.796775    1.197078
     10          6           0       -0.662750   -5.701784    0.159776
     11          1           0       -1.286648   -6.573724    0.294836
     12          6           0        1.133555   -4.308736   -0.210626
     13          6           0        1.274824   -1.477661   -0.196950
     14          6           0        1.731386    2.208244   -1.288424
     15          6           0       -1.603953    0.366771   -1.387388
     16          6           0       -1.873933    2.831178    2.529222
     17          1           0       -2.010840    3.905938    2.559127
     18          6           0       -2.331781   -3.687034    0.493343
     19          1           0       -3.241031   -4.244160    0.687654
     20          6           0       -1.621892    1.697300   -1.920920
     21          6           0        2.379610   -2.269544   -0.441995
     22          1           0        3.338656   -1.782492   -0.586376
     23          6           0        1.604133    0.378252    1.384291
     24          6           0        1.622253    1.713148    1.906796
     25          6           0        2.331864   -3.691022   -0.462361
     26          1           0        3.241165   -4.249750   -0.651766
     27          6           0       -1.731418    2.218821    1.270130
     28          6           0       -1.491267    0.108444    2.442061
     29          1           0       -1.324453   -0.957801    2.443000
     30          6           0        1.702277   -0.673944    2.348425
     31          1           0        1.723960   -1.700208    2.015228
     32          6           0       -1.842266    2.118132    3.709283
     33          1           0       -1.964982    2.625169    4.658616
     34          6           0       -2.379563   -2.265778    0.460950
     35          1           0       -3.338591   -1.777530    0.601357
     36          6           0       -1.684510    1.880430   -3.317624
     37          1           0       -1.677795    2.895935   -3.696281
     38          6           0        1.571305    0.786837   -1.203616
     39          6           0       -1.698212    3.137242    0.162411
     40          1           0       -1.736929    4.180986    0.458870
     41          6           0       -1.779245    0.829324   -4.200151
     42          1           0       -1.847134    1.012901   -5.265562
     43          6           0       -1.619789    2.919771   -1.164887
     44          1           0       -1.595205    3.814458   -1.779803
     45          6           0        1.685371    1.907832    3.301919
     46          1           0        1.678830    2.926442    3.672142
     47          6           0       -1.629025    0.739189    3.658143
     48          1           0       -1.566385    0.158616    4.570502
     49          6           0       -1.702019   -0.693361   -2.342785
     50          1           0       -1.723980   -1.716829   -2.001112
     51          6           0        1.780302    0.864067    4.193084
     52          1           0        1.848586    1.056451    5.256917
     53          6           0        1.874298    2.810115   -2.552522
     54          1           0        2.011118    3.884600   -2.591318
     55          6           0        1.805753   -0.444734    3.699266
     56          1           0        1.902647   -1.284652    4.376299
     57          6           0        1.843159    2.087256   -3.726606
     58          1           0        1.966262    2.586358   -4.680083
     59          6           0        1.697718    3.135827   -0.188379
     60          1           0        1.735925    4.177092   -0.493489
     61          6           0       -1.805094   -0.475331   -3.695516
     62          1           0       -1.901973   -1.320811   -4.365593
     63          6           0        1.619539    2.929315    1.140684
     64          1           0        1.594620    3.829049    1.748181
     65          6           0        1.491725    0.088168   -2.442841
     66          1           0        1.324898   -0.978049   -2.434900
     67          6           0        1.629928    0.708769   -3.664076
     68          1           0        1.567677    0.120628   -4.571601
 ---------------------------------------------------------------------

 Alpha  occ. eigenvalues --  -10.70844 -10.70843 -10.68599 -10.68599 -10.68572
 Alpha  occ. eigenvalues --  -10.68572 -10.68238 -10.68237 -10.68190 -10.68190
 Alpha  occ. eigenvalues --  -10.67170 -10.67167 -10.66645 -10.66645 -10.66573
 Alpha  occ. eigenvalues --  -10.66541 -10.66541 -10.65972 -10.65972 -10.65816
 Alpha  occ. eigenvalues --  -10.65816 -10.65755 -10.65755 -10.65728 -10.65728
 Alpha  occ. eigenvalues --  -10.65636 -10.65636 -10.65625 -10.65625 -10.65603
 Alpha  occ. eigenvalues --  -10.65603 -10.65456 -10.65456 -10.65435 -10.65435
 Alpha  occ. eigenvalues --  -10.65309 -10.65309 -10.64938 -10.64938 -10.63907
 Alpha  occ. eigenvalues --  -10.63808 -10.63506  -1.12154  -1.10252  -1.10139
 Alpha  occ. eigenvalues --   -1.08370  -1.07791  -1.05517  -1.04916  -1.02557
 Alpha  occ. eigenvalues --   -1.02115  -1.00955  -1.00370  -0.97955  -0.97636
 Alpha  occ. eigenvalues --   -0.96804  -0.96285  -0.94966  -0.93526  -0.93484
 Alpha  occ. eigenvalues --   -0.92841  -0.91812  -0.87390  -0.87304  -0.84993
 Alpha  occ. eigenvalues --   -0.84783  -0.83088  -0.81478  -0.81043  -0.79809
 Alpha  occ. eigenvalues --   -0.79704  -0.79534  -0.77459  -0.76373  -0.76186
 Alpha  occ. eigenvalues --   -0.75840  -0.75402  -0.73460  -0.70223  -0.69666
 Alpha  occ. eigenvalues --   -0.68962  -0.68548  -0.67756  -0.67654  -0.66932
 Alpha  occ. eigenvalues --   -0.66871  -0.65720  -0.65369  -0.65207  -0.64760
 Alpha  occ. eigenvalues --   -0.63257  -0.62857  -0.62390  -0.62139  -0.61045
 Alpha  occ. eigenvalues --   -0.61013  -0.60584  -0.60479  -0.60110  -0.60057
 Alpha  occ. eigenvalues --   -0.59569  -0.58883  -0.58816  -0.58131  -0.57765
 Alpha  occ. eigenvalues --   -0.57557  -0.56916  -0.55970  -0.55666  -0.55654
 Alpha  occ. eigenvalues --   -0.54959  -0.53968  -0.53064  -0.52847  -0.52645
 Alpha  occ. eigenvalues --   -0.52386  -0.52373  -0.52246  -0.51026  -0.50971
 Alpha  occ. eigenvalues --   -0.50963  -0.50896  -0.49956  -0.49526  -0.49452
 Alpha  occ. eigenvalues --   -0.48775  -0.48499  -0.47855  -0.45210  -0.44714
 Alpha  occ. eigenvalues --   -0.44076  -0.42793  -0.40488  -0.40428  -0.39289
 Alpha  occ. eigenvalues --   -0.38167  -0.37546  -0.37107  -0.31095
 Alpha virt. eigenvalues --   -0.20638  -0.15984  -0.15535  -0.14334  -0.10654
 Alpha virt. eigenvalues --   -0.09976  -0.08917  -0.08547  -0.08362  -0.07562
 Alpha virt. eigenvalues --   -0.07526  -0.07437  -0.06653  -0.06352  -0.06144

  Beta  occ. eigenvalues --  -10.70698 -10.70698 -10.68642 -10.68642 -10.68608
  Beta  occ. eigenvalues --  -10.68608 -10.68198 -10.68197 -10.68146 -10.68146
  Beta  occ. eigenvalues --  -10.67188 -10.67186 -10.66640 -10.66640 -10.66544
  Beta  occ. eigenvalues --  -10.66532 -10.66532 -10.65933 -10.65933 -10.65784
  Beta  occ. eigenvalues --  -10.65784 -10.65721 -10.65721 -10.65700 -10.65700
  Beta  occ. eigenvalues --  -10.65643 -10.65643 -10.65635 -10.65635 -10.65622
  Beta  occ. eigenvalues --  -10.65622 -10.65469 -10.65469 -10.65421 -10.65421
  Beta  occ. eigenvalues --  -10.65326 -10.65326 -10.64936 -10.64936 -10.63907
  Beta  occ. eigenvalues --  -10.63808 -10.63503  -1.11999  -1.10091  -1.10055
  Beta  occ. eigenvalues --   -1.08259  -1.07696  -1.05355  -1.04783  -1.02439
  Beta  occ. eigenvalues --   -1.02013  -1.00786  -1.00200  -0.97853  -0.97543
  Beta  occ. eigenvalues --   -0.96689  -0.96187  -0.94918  -0.93460  -0.93388
  Beta  occ. eigenvalues --   -0.92768  -0.91728  -0.87099  -0.86947  -0.84926
  Beta  occ. eigenvalues --   -0.84722  -0.83009  -0.81384  -0.80935  -0.79727
  Beta  occ. eigenvalues --   -0.79636  -0.79464  -0.77350  -0.76222  -0.76037
  Beta  occ. eigenvalues --   -0.75679  -0.75366  -0.73340  -0.70107  -0.69523
  Beta  occ. eigenvalues --   -0.68832  -0.68437  -0.67706  -0.67608  -0.66811
  Beta  occ. eigenvalues --   -0.66764  -0.65639  -0.65224  -0.65067  -0.64662
  Beta  occ. eigenvalues --   -0.63051  -0.62810  -0.62310  -0.62063  -0.60882
  Beta  occ. eigenvalues --   -0.60747  -0.60424  -0.60310  -0.60050  -0.60004
  Beta  occ. eigenvalues --   -0.59441  -0.58751  -0.58729  -0.58060  -0.57578
  Beta  occ. eigenvalues --   -0.57286  -0.56692  -0.55663  -0.55619  -0.55601
  Beta  occ. eigenvalues --   -0.54938  -0.53655  -0.52959  -0.52763  -0.52575
  Beta  occ. eigenvalues --   -0.52298  -0.52268  -0.52197  -0.50960  -0.50893
  Beta  occ. eigenvalues --   -0.50811  -0.50491  -0.49514  -0.49318  -0.48884
  Beta  occ. eigenvalues --   -0.48442  -0.48401  -0.47550  -0.44594  -0.44176
  Beta  occ. eigenvalues --   -0.43355  -0.42447  -0.40362  -0.40117  -0.38698
  Beta  occ. eigenvalues --   -0.38022  -0.37288  -0.37003
  Beta virt. eigenvalues --   -0.21343  -0.17941  -0.15780  -0.15494  -0.14385
  Beta virt. eigenvalues --   -0.10352  -0.09574  -0.08541  -0.08474  -0.08136
  Beta virt. eigenvalues --   -0.07589  -0.07571  -0.07208  -0.06635  -0.06287

 Mulliken charges and spin densities:
               1          2
     1  C    0.015722   0.367031
     2  C    0.015560   0.367021
     3  C    0.267891   0.009150
     4  C    0.194347  -0.004601
     5  C    0.155314   0.005763
     6  C   -0.029488  -0.032274
     7  C   -0.304448   0.000865
     8  H    0.176154  -0.000028
     9  C    0.156120  -0.056561
    10  C   -0.304387   0.000862
    11  H    0.176156  -0.000028
    12  C    0.155489   0.005761
    13  C   -0.029408  -0.032277
    14  C    0.472407   0.032837
    15  C    0.409937  -0.079306
    16  C   -0.385772  -0.032347
    17  H    0.165772   0.001110
    18  C   -0.515604   0.001006
    19  H    0.175907   0.000217
    20  C    0.230166   0.107283
    21  C   -0.088232   0.020921
    22  H    0.174974  -0.000229
    23  C    0.410209  -0.079298
    24  C    0.229802   0.107309
    25  C   -0.515472   0.001008
    26  H    0.175906   0.000217
    27  C    0.472799   0.032943
    28  C    0.007514   0.079849
    29  H    0.208039  -0.003978
    30  C   -0.266613   0.034626
    31  H    0.226157  -0.002692
    32  C   -0.398308   0.056950
    33  H    0.182281  -0.003192
    34  C   -0.088247   0.020914
    35  H    0.174969  -0.000229
    36  C   -0.023023  -0.058651
    37  H    0.161312   0.001518
    38  C    0.156196  -0.056461
    39  C   -0.303142   0.059795
    40  H    0.165722  -0.003271
    41  C   -0.242820   0.066435
    42  H    0.180776  -0.003373
    43  C   -0.333877   0.011492
    44  H    0.160524  -0.000645
    45  C   -0.023116  -0.058666
    46  H    0.161324   0.001519
    47  C   -0.076495  -0.039614
    48  H    0.168579  -0.000078
    49  C   -0.266556   0.034635
    50  H    0.226159  -0.002693
    51  C   -0.243040   0.066390
    52  H    0.180784  -0.003370
    53  C   -0.385921  -0.032308
    54  H    0.165782   0.001109
    55  C   -0.532761  -0.035047
    56  H    0.175840   0.001242
    57  C   -0.398673   0.056923
    58  H    0.182281  -0.003190
    59  C   -0.302232   0.059843
    60  H    0.165698  -0.003275
    61  C   -0.533217  -0.035076
    62  H    0.175844   0.001242
    63  C   -0.333569   0.011472
    64  H    0.160493  -0.000645
    65  C    0.007833   0.079867
    66  H    0.208045  -0.003978
    67  C   -0.076953  -0.039665
    68  H    0.168591  -0.000078
 Sum of Mulliken charges =   1.00000   1.00000

 Dipole moment (field-independent basis, Debye):
    X=              0.0012    Y=              2.4526    Z=             -0.0097  Tot=              2.4526
 Quadrupole moment (field-independent basis, Debye-Ang):
   XX=           -222.5425   YY=           -175.0120   ZZ=           -176.1807
   XY=             -0.0053   XZ=             -1.1147   YZ=             -0.0077

 Normal termination of Gaussian 16 at Fri Nov  8 01:52:42 2024.
