 Gaussian 16, Revision A.03,
 Gaussian 16:  ES64L-G16RevA.03 25-Dec-2016

 --------------------------------------------
 #p opt UM062X/6-311+G** nosymm int=superfine
 --------------------------------------------

 -------------------
 Title Card Required
 -------------------
 Symbolic Z-matrix:
 Charge =  0 Multiplicity = 1

 SCF Done:  E(UM062X) =  -437.155908086     A.U. after   16 cycles
 SCF Done:  E(UM062X) =  -437.158845906     A.U. after   16 cycles
 SCF Done:  E(UM062X) =  -437.159805972     A.U. after   12 cycles
 SCF Done:  E(UM062X) =  -437.159807290     A.U. after   11 cycles
 Optimization completed.
    -- Stationary point found.

                          Input orientation:
 ---------------------------------------------------------------------
 Center     Atomic      Atomic             Coordinates (Angstroms)
 Number     Number       Type             X           Y           Z
 ---------------------------------------------------------------------
      1          6           0       -2.227140    0.000000    0.000000
      2         16           0        2.227140    0.000000    0.000000
      3          1           0       -2.918927   -0.864977   -0.000071
      4          1           0       -2.919923    0.864179   -0.000195
 ---------------------------------------------------------------------

 Alpha  occ. eigenvalues --  -89.94748 -10.62000  -8.30802  -6.23595  -6.22002
 Alpha  occ. eigenvalues --   -6.22002  -0.76704  -0.74907  -0.48752  -0.32583
 Alpha  occ. eigenvalues --   -0.32206  -0.32201
 Alpha virt. eigenvalues --   -0.17220  -0.09234   0.01599   0.04487   0.05383
 Alpha virt. eigenvalues --    0.06322   0.07901   0.08302   0.08879   0.13793
 Alpha virt. eigenvalues --    0.17438   0.18863   0.35332   0.36516   0.36542

  Beta  occ. eigenvalues --  -89.94748 -10.62000  -8.30802  -6.23595  -6.22002
  Beta  occ. eigenvalues --   -6.22002  -0.76704  -0.74907  -0.48752  -0.32583
  Beta  occ. eigenvalues --   -0.32206  -0.32201
  Beta virt. eigenvalues --   -0.17220  -0.09234   0.01599   0.04487   0.05383
  Beta virt. eigenvalues --    0.06322   0.07901   0.08302   0.08879   0.13793
  Beta virt. eigenvalues --    0.17438   0.18863   0.35332   0.36516   0.36542

 Mulliken charges and spin densities:
               1          2
     1  C   -0.275931  -0.000000
     2  S    0.003305   0.000000
     3  H    0.136310   0.000000
     4  H    0.136316  -0.000000
 Sum of Mulliken charges =  -0.00000   0.00000

 Dipole moment (field-independent basis, Debye):
    X=             -2.3696    Y=             -0.0012    Z=             -0.0004  Tot=              2.3696
 Quadrupole moment (field-independent basis, Debye-Ang):
   XX=             -9.4911   YY=            -22.3847   ZZ=            -21.6828
   XY=              0.0005   XZ=              0.0001   YZ=              0.0000

 Normal termination of Gaussian 16 at Mon Apr 21 19:45:38 2025.
