 Gaussian 16, Revision A.03,
 Gaussian 16:  ES64L-G16RevA.03 25-Dec-2016

 --------------------------------------------
 #p opt UM062X/6-311+G** nosymm int=superfine
 --------------------------------------------

 -------------------
 Title Card Required
 -------------------
 Symbolic Z-matrix:
 Charge = -1 Multiplicity = 2

 SCF Done:  E(UM062X) =  -53.1913494686     A.U. after   12 cycles
 SCF Done:  E(UM062X) =  -53.1967149138     A.U. after   11 cycles
 SCF Done:  E(UM062X) =  -53.1979558669     A.U. after   10 cycles
 SCF Done:  E(UM062X) =  -53.1979634715     A.U. after    9 cycles
 Optimization completed.
    -- Stationary point found.

                          Input orientation:
 ---------------------------------------------------------------------
 Center     Atomic      Atomic             Coordinates (Angstroms)
 Number     Number       Type             X           Y           Z
 ---------------------------------------------------------------------
      1          5           0       -2.540672    0.000000    0.000000
      2          5           0        2.540672    0.000000    0.000000
      3          1           0        2.583246   -1.196995   -0.000016
      4          1           0       -2.583192   -0.598490    1.036635
      5          1           0        2.583363    0.598508   -1.036618
      6          1           0        2.583118    0.598476    1.036646
      7          1           0       -2.583255    1.196994   -0.000001
      8          1           0       -2.583280   -0.598495   -1.036629
 ---------------------------------------------------------------------

 Alpha  occ. eigenvalues --   -6.85795  -6.85794  -0.41013  -0.40845  -0.22929
 Alpha  occ. eigenvalues --   -0.22928  -0.22874  -0.22874   0.01580
 Alpha virt. eigenvalues --    0.09121   0.16091   0.17265   0.17265   0.17855
 Alpha virt. eigenvalues --    0.17865   0.17865   0.23691   0.23788   0.32545
 Alpha virt. eigenvalues --    0.32546   0.32997   0.32997   0.33405   0.38215

  Beta  occ. eigenvalues --   -6.85758  -6.85757  -0.39394  -0.39284  -0.22787
  Beta  occ. eigenvalues --   -0.22787  -0.22716  -0.22716
  Beta virt. eigenvalues --    0.03145   0.12422   0.12669   0.13779   0.13780
  Beta virt. eigenvalues --    0.17208   0.17208   0.18568   0.22697   0.24443
  Beta virt. eigenvalues --    0.30995   0.31576   0.31576   0.32013   0.32013

 Mulliken charges and spin densities:
               1          2
     1  B   -0.366904   0.545116
     2  B   -0.366904   0.545116
     3  H   -0.044380  -0.015054
     4  H   -0.044356  -0.015031
     5  H   -0.044363  -0.015032
     6  H   -0.044354  -0.015030
     7  H   -0.044380  -0.015054
     8  H   -0.044360  -0.015032
 Sum of Mulliken charges =  -1.00000   1.00000

 Dipole moment (field-independent basis, Debye):
    X=              0.0000    Y=             -0.0000    Z=              0.0001  Tot=              0.0001
 Quadrupole moment (field-independent basis, Debye-Ang):
   XX=            -54.4031   YY=            -24.4155   ZZ=            -24.4153
   XY=              0.0002   XZ=              0.0000   YZ=              0.0000

 Normal termination of Gaussian 16 at Mon Apr 21 17:00:19 2025.
