 Gaussian 16, Revision A.03,
 Gaussian 16:  ES64L-G16RevA.03 25-Dec-2016

 ---------------------------------------------------
 #p UM062X/6-311+G** force int=superfine pop=saveNBO
 ---------------------------------------------------

 -------------------
 Title Card Required
 -------------------
 Symbolic Z-matrix:
 Charge =  0 Multiplicity = 1

                         Standard orientation:
 ---------------------------------------------------------------------
 Center     Atomic      Atomic             Coordinates (Angstroms)
 Number     Number       Type             X           Y           Z
 ---------------------------------------------------------------------
      1         16           0        0.000000    0.000000    1.350200
      2         16           0        0.000000    0.000000   -1.350200
 ---------------------------------------------------------------------

 SCF Done:  E(UM062X) =  -796.178562587     A.U. after    9 cycles

 Unable to determine electronic state:  partially filled degenerate orbitals.
 Alpha  occ. eigenvalues --  -89.98964 -89.98964  -8.34637  -8.34634  -6.26682
 Alpha  occ. eigenvalues --   -6.26682  -6.26653  -6.26652  -6.25829  -6.25828
 Alpha  occ. eigenvalues --   -0.81057  -0.75308  -0.39003  -0.36530  -0.34382
 Alpha  occ. eigenvalues --   -0.32681
 Alpha virt. eigenvalues --   -0.20764  -0.14148   0.03145   0.03913   0.04939
 Alpha virt. eigenvalues --    0.05547   0.07390   0.07446   0.07907   0.14047
 Alpha virt. eigenvalues --    0.31344   0.32125   0.33148   0.36080   0.36952

  Beta  occ. eigenvalues --  -89.98964 -89.98964  -8.34637  -8.34634  -6.26682
  Beta  occ. eigenvalues --   -6.26682  -6.26653  -6.26652  -6.25829  -6.25828
  Beta  occ. eigenvalues --   -0.81057  -0.75308  -0.39003  -0.36530  -0.34382
  Beta  occ. eigenvalues --   -0.32681
  Beta virt. eigenvalues --   -0.20764  -0.14148   0.03145   0.03913   0.04939
  Beta virt. eigenvalues --    0.05547   0.07390   0.07446   0.07907   0.14047
  Beta virt. eigenvalues --    0.31344   0.32125   0.33148   0.36080   0.36952

 Mulliken charges and spin densities:
               1          2
     1  S    0.000000  -0.000000
     2  S    0.000000  -0.000000
 Sum of Mulliken charges =   0.00000  -0.00000

 Dipole moment (field-independent basis, Debye):
    X=              0.0000    Y=             -0.0000    Z=             -0.0000  Tot=              0.0000
 Quadrupole moment (field-independent basis, Debye-Ang):
   XX=            -30.0344   YY=            -25.1444   ZZ=            -23.2663
   XY=              0.0000   XZ=             -0.0000   YZ=              0.0000

 Summary of Natural Population Analysis:

                                       Natural Population
                Natural  -----------------------------------------------
    Atom  No    Charge         Core      Valence    Rydberg      Total
 -----------------------------------------------------------------------
      S    1   -0.00000      4.99999     2.99772    0.00230     8.00000
      S    2    0.00000      4.99999     2.99772    0.00230     8.00000
 =======================================================================
   * Total *   -0.00000      9.99997     5.99543    0.00460    16.00000

 Normal termination of Gaussian 16 at Mon Apr 21 20:07:58 2025.
