 Gaussian 16, Revision A.03,
 Gaussian 16:  ES64L-G16RevA.03 25-Dec-2016

 ---------------------------------------------------------
 #p opt UM062X/6-311+G** nosymm int=superfine SCF=NoVarAcc
 ---------------------------------------------------------

 -------------------
 Title Card Required
 -------------------
 Symbolic Z-matrix:
 Charge =  1 Multiplicity = 2

 SCF Done:  E(UM062X) =  -77.9701368663     A.U. after    9 cycles
 SCF Done:  E(UM062X) =  -77.9702622616     A.U. after    7 cycles
 SCF Done:  E(UM062X) =  -77.9703132373     A.U. after    8 cycles
 Optimization completed.
    -- Stationary point found.

                          Input orientation:
 ---------------------------------------------------------------------
 Center     Atomic      Atomic             Coordinates (Angstroms)
 Number     Number       Type             X           Y           Z
 ---------------------------------------------------------------------
      1          6           0       -1.231027    0.000000    0.000000
      2          6           0        1.231027    0.000000    0.000000
      3          1           0       -1.644526   -1.003591   -0.000000
      4          1           0       -1.644522    1.003594   -0.000000
      5          1           0        1.644526    1.003591    0.000000
      6          1           0        1.644522   -1.003594    0.000000
 ---------------------------------------------------------------------

 Alpha  occ. eigenvalues --  -10.92344 -10.92336  -1.03879  -1.00781  -0.79835
 Alpha  occ. eigenvalues --   -0.78552  -0.60673  -0.52826
 Alpha virt. eigenvalues --   -0.38558  -0.32219  -0.13638  -0.10820  -0.10464
 Alpha virt. eigenvalues --   -0.07929  -0.07555  -0.06801  -0.04683  -0.03992
 Alpha virt. eigenvalues --   -0.03520   0.00751   0.01739   0.09211   0.18380

  Beta  occ. eigenvalues --  -10.92091 -10.92086  -1.01021  -0.98390  -0.79415
  Beta  occ. eigenvalues --   -0.78192  -0.58914
  Beta virt. eigenvalues --   -0.33134  -0.30021  -0.29051  -0.14761  -0.11063
  Beta virt. eigenvalues --   -0.10674  -0.07395  -0.07368  -0.06970  -0.03835
  Beta virt. eigenvalues --   -0.03769  -0.03477   0.00565   0.01198   0.10163

 Mulliken charges and spin densities:
               1          2
     1  C   -0.067257   0.541876
     2  C   -0.067257   0.541877
     3  H    0.283628  -0.020938
     4  H    0.283628  -0.020938
     5  H    0.283628  -0.020938
     6  H    0.283628  -0.020938
 Sum of Mulliken charges =   1.00000   1.00000

 Dipole moment (field-independent basis, Debye):
    X=             -0.0000    Y=             -0.0000    Z=             -0.0000  Tot=              0.0000
 Quadrupole moment (field-independent basis, Debye-Ang):
   XX=              1.2251   YY=             -7.9152   ZZ=            -12.8534
   XY=              0.0000   XZ=              0.0000   YZ=             -0.0000

 Normal termination of Gaussian 16 at Tue Dec  3 13:22:25 2024.
