 Gaussian 16, Revision A.03,
 Gaussian 16:  ES64L-G16RevA.03 25-Dec-2016

 --------------------------------------------
 #p opt UM062X/6-311+G** nosymm int=superfine
 --------------------------------------------

 -------------------
 Title Card Required
 -------------------
 Symbolic Z-matrix:
 Charge =  1 Multiplicity = 2

 SCF Done:  E(UM062X) =  -579.719578481     A.U. after   18 cycles
 SCF Done:  E(UM062X) =  -579.719810463     A.U. after   18 cycles
 SCF Done:  E(UM062X) =  -579.719751325     A.U. after   18 cycles
 SCF Done:  E(UM062X) =  -579.720220379     A.U. after   16 cycles
 SCF Done:  E(UM062X) =  -579.720328944     A.U. after   15 cycles
 SCF Done:  E(UM062X) =  -579.720356441     A.U. after   16 cycles
 SCF Done:  E(UM062X) =  -579.720383253     A.U. after   17 cycles
 SCF Done:  E(UM062X) =  -579.720436847     A.U. after   17 cycles
 SCF Done:  E(UM062X) =  -579.720464762     A.U. after   15 cycles
 SCF Done:  E(UM062X) =  -579.720472106     A.U. after   15 cycles
 SCF Done:  E(UM062X) =  -579.720472282     A.U. after   13 cycles
 SCF Done:  E(UM062X) =  -579.720472312     A.U. after   13 cycles
 Optimization completed.
    -- Stationary point found.

                          Input orientation:
 ---------------------------------------------------------------------
 Center     Atomic      Atomic             Coordinates (Angstroms)
 Number     Number       Type             X           Y           Z
 ---------------------------------------------------------------------
      1         14           0       -1.427975    0.000000    0.000000
      2         14           0        1.427975    0.000000    0.000000
      3          1           0       -1.640818   -1.151140    0.944441
      4          1           0        1.657415    1.233653    0.828905
 ---------------------------------------------------------------------

 Alpha  occ. eigenvalues --  -67.27797 -67.27780  -5.82005  -5.81988  -4.13158
 Alpha  occ. eigenvalues --   -4.13136  -4.13067  -4.13047  -4.12437  -4.12419
 Alpha  occ. eigenvalues --   -0.80146  -0.75354  -0.56207  -0.53718  -0.47097
 Alpha virt. eigenvalues --   -0.29606  -0.28478  -0.21710  -0.13198  -0.10925
 Alpha virt. eigenvalues --   -0.09149  -0.09094  -0.08530  -0.08343  -0.06028
 Alpha virt. eigenvalues --   -0.05888  -0.05753  -0.03067   0.12237   0.12448

  Beta  occ. eigenvalues --  -67.27490 -67.27477  -5.81883  -5.81869  -4.12998
  Beta  occ. eigenvalues --   -4.12980  -4.12433  -4.12418  -4.12193  -4.12180
  Beta  occ. eigenvalues --   -0.78274  -0.73378  -0.55843  -0.51391
  Beta virt. eigenvalues --   -0.31494  -0.28997  -0.27294  -0.18554  -0.13297
  Beta virt. eigenvalues --   -0.10570  -0.09369  -0.08724  -0.08122  -0.07620
  Beta virt. eigenvalues --   -0.05830  -0.05223  -0.05206  -0.02181   0.11546

 Mulliken charges and spin densities:
               1          2
     1  Si   0.556027   0.505139
     2  Si   0.553809   0.512077
     3  H   -0.055571  -0.008643
     4  H   -0.054264  -0.008573
 Sum of Mulliken charges =   1.00000   1.00000

 Dipole moment (field-independent basis, Debye):
    X=              0.0121    Y=              0.0252    Z=              0.5273  Tot=              0.5280
 Quadrupole moment (field-independent basis, Debye-Ang):
   XX=            -10.6201   YY=            -24.0772   ZZ=            -22.0735
   XY=              1.1421   XZ=             -0.0640   YZ=              0.1024

 Normal termination of Gaussian 16 at Mon Apr 21 22:57:59 2025.
