 Gaussian 16, Revision A.03,
 Gaussian 16:  ES64L-G16RevA.03 25-Dec-2016

 --------------------------------------------
 #p opt UM062X/6-311+G** nosymm int=superfine
 --------------------------------------------

 -------------------
 Title Card Required
 -------------------
 Symbolic Z-matrix:
 Charge = -1 Multiplicity = 2

 SCF Done:  E(UM062X) =  -51.9630067983     A.U. after   11 cycles
 SCF Done:  E(UM062X) =  -51.9648743836     A.U. after    9 cycles
 SCF Done:  E(UM062X) =  -51.9655291657     A.U. after   10 cycles
 SCF Done:  E(UM062X) =  -51.9655327388     A.U. after   10 cycles
 SCF Done:  E(UM062X) =  -51.9654612649     A.U. after   12 cycles
 SCF Done:  E(UM062X) =  -51.9655334930     A.U. after   12 cycles
 Optimization completed.
    -- Stationary point found.

                          Input orientation:
 ---------------------------------------------------------------------
 Center     Atomic      Atomic             Coordinates (Angstroms)
 Number     Number       Type             X           Y           Z
 ---------------------------------------------------------------------
      1          5           0       -1.172274    0.000000    0.000000
      2          5           0        1.172274    0.000000    0.000000
      3          1           0       -1.760846   -1.046174    0.000304
      4          1           0        1.760846    1.046174   -0.000195
      5          1           0       -1.760846    1.046174    0.000537
      6          1           0        1.760846   -1.046173    0.001037
 ---------------------------------------------------------------------

 Alpha  occ. eigenvalues --   -6.85007  -6.84997  -0.36963  -0.33808  -0.21299
 Alpha  occ. eigenvalues --   -0.19419  -0.06998   0.00920
 Alpha virt. eigenvalues --    0.15704   0.15904   0.16872   0.19275   0.19344
 Alpha virt. eigenvalues --    0.22465   0.22743   0.24898   0.26401   0.29568
 Alpha virt. eigenvalues --    0.33409   0.35236   0.37074   0.42953   0.50731

  Beta  occ. eigenvalues --   -6.84980  -6.84974  -0.35220  -0.32601  -0.21076
  Beta  occ. eigenvalues --   -0.19364  -0.06003
  Beta virt. eigenvalues --    0.11231   0.14065   0.14931   0.15648   0.16683
  Beta virt. eigenvalues --    0.18225   0.18793   0.20924   0.22934   0.27034
  Beta virt. eigenvalues --    0.31552   0.32475   0.35309   0.35931   0.42874

 Mulliken charges and spin densities:
               1          2
     1  B   -0.391589   0.544840
     2  B   -0.391589   0.544840
     3  H   -0.054205  -0.022420
     4  H   -0.054205  -0.022420
     5  H   -0.054205  -0.022420
     6  H   -0.054205  -0.022420
 Sum of Mulliken charges =  -1.00000   1.00000

 Dipole moment (field-independent basis, Debye):
    X=              0.0000    Y=              0.0000    Z=              0.0003  Tot=              0.0003
 Quadrupole moment (field-independent basis, Debye-Ang):
   XX=            -30.4958   YY=            -23.3251   ZZ=            -24.4050
   XY=             -0.0000   XZ=             -0.0000   YZ=             -0.0003

 Normal termination of Gaussian 16 at Mon Apr 21 17:20:02 2025.
