 Gaussian 16, Revision A.03,
 Gaussian 16:  ES64L-G16RevA.03 25-Dec-2016

 --------------------------------------------
 #p opt UM062X/6-311+G** nosymm int=superfine
 --------------------------------------------

 -------------------
 Title Card Required
 -------------------
 Symbolic Z-matrix:
 Charge =  0 Multiplicity = 1

 SCF Done:  E(UM062X) =  -51.8755258533     A.U. after    8 cycles
 SCF Done:  E(UM062X) =  -51.8787520133     A.U. after    8 cycles
 SCF Done:  E(UM062X) =  -51.8801422029     A.U. after    9 cycles
 SCF Done:  E(UM062X) =  -51.8801408551     A.U. after    8 cycles
 SCF Done:  E(UM062X) =  -51.8801372603     A.U. after    9 cycles
 SCF Done:  E(UM062X) =  -51.8801426959     A.U. after    8 cycles
 Optimization completed.
    -- Stationary point found.

                          Input orientation:
 ---------------------------------------------------------------------
 Center     Atomic      Atomic             Coordinates (Angstroms)
 Number     Number       Type             X           Y           Z
 ---------------------------------------------------------------------
      1          5           0       -1.445607    0.000000    0.000000
      2          5           0        1.445607    0.000000    0.000000
      3          1           0       -1.960818   -1.063831   -0.001744
      4          1           0        1.960818    1.063807   -0.007378
      5          1           0       -1.960818    1.063831    0.001696
      6          1           0        1.960818   -1.063807    0.007337
 ---------------------------------------------------------------------

 Alpha  occ. eigenvalues --   -7.10006  -7.10003  -0.57520  -0.56134  -0.43718
 Alpha  occ. eigenvalues --   -0.43034  -0.24676
 Alpha virt. eigenvalues --   -0.05594  -0.02075  -0.00439   0.02309   0.03925
 Alpha virt. eigenvalues --    0.04425   0.05894   0.06225   0.07427   0.07877
 Alpha virt. eigenvalues --    0.10630   0.15906   0.17332   0.17830   0.25969

  Beta  occ. eigenvalues --   -7.10006  -7.10003  -0.57520  -0.56134  -0.43718
  Beta  occ. eigenvalues --   -0.43034  -0.24676
  Beta virt. eigenvalues --   -0.05594  -0.02075  -0.00439   0.02309   0.03925
  Beta virt. eigenvalues --    0.04425   0.05894   0.06225   0.07427   0.07877
  Beta virt. eigenvalues --    0.10630   0.15906   0.17332   0.17830   0.25969

 Mulliken charges and spin densities:
               1          2
     1  B   -0.046295  -0.000000
     2  B   -0.046296   0.000000
     3  H    0.023148  -0.000000
     4  H    0.023148   0.000000
     5  H    0.023148   0.000000
     6  H    0.023148   0.000000
 Sum of Mulliken charges =  -0.00000   0.00000

 Dipole moment (field-independent basis, Debye):
    X=             -0.0000    Y=             -0.0000    Z=              0.0000  Tot=              0.0000
 Quadrupole moment (field-independent basis, Debye-Ang):
   XX=            -14.7143   YY=            -16.8748   ZZ=            -13.8607
   XY=              0.0000   XZ=             -0.0000   YZ=              0.0080

 Normal termination of Gaussian 16 at Mon Apr 21 17:10:13 2025.
