 Gaussian 16, Revision A.03,
 Gaussian 16:  ES64L-G16RevA.03 25-Dec-2016

 --------------------------------------------
 #p opt UM062X/6-311+G** nosymm int=superfine
 --------------------------------------------

 -------------------
 Title Card Required
 -------------------
 Symbolic Z-matrix:
 Charge =  0 Multiplicity = 1

 SCF Done:  E(UM062X) =  -81.7426252189     A.U. after   20 cycles
 SCF Done:  E(UM062X) =  -81.7498952820     A.U. after   13 cycles
 SCF Done:  E(UM062X) =  -81.7547922284     A.U. after   16 cycles
 SCF Done:  E(UM062X) =  -81.7678260125     A.U. after   15 cycles
 SCF Done:  E(UM062X) =  -81.7774381936     A.U. after   14 cycles
 SCF Done:  E(UM062X) =  -81.7769860676     A.U. after   14 cycles
 SCF Done:  E(UM062X) =  -81.7772630700     A.U. after   15 cycles
 SCF Done:  E(UM062X) =  -81.7807379007     A.U. after   13 cycles
 SCF Done:  E(UM062X) =  -81.7816078775     A.U. after   12 cycles
 SCF Done:  E(UM062X) =  -81.7816777555     A.U. after   11 cycles
 SCF Done:  E(UM062X) =  -81.7816907884     A.U. after   10 cycles
 SCF Done:  E(UM062X) =  -81.7816912236     A.U. after   12 cycles
 Optimization completed.
    -- Stationary point found.

                          Input orientation:
 ---------------------------------------------------------------------
 Center     Atomic      Atomic             Coordinates (Angstroms)
 Number     Number       Type             X           Y           Z
 ---------------------------------------------------------------------
      1          5           0       -1.495399    0.000000    0.000000
      2          7           0        1.495399    0.000000    0.000000
      3          1           0       -1.868955   -1.111126   -0.026143
      4          1           0        1.537851    0.804639    0.632831
      5          1           0       -1.868954    1.111118   -0.026496
      6          1           0        1.537850   -0.804449    0.633072
 ---------------------------------------------------------------------

 Alpha  occ. eigenvalues --  -14.72061  -7.17343  -0.87683  -0.62007  -0.50331
 Alpha  occ. eigenvalues --   -0.48389  -0.33673  -0.26010
 Alpha virt. eigenvalues --   -0.08069  -0.07045   0.01049   0.02992   0.04177
 Alpha virt. eigenvalues --    0.05231   0.10335   0.12494   0.13729   0.17325
 Alpha virt. eigenvalues --    0.20487   0.20967   0.21445   0.29714   0.32721

  Beta  occ. eigenvalues --  -14.72061  -7.17343  -0.87683  -0.62007  -0.50331
  Beta  occ. eigenvalues --   -0.48389  -0.33673  -0.26010
  Beta virt. eigenvalues --   -0.08069  -0.07045   0.01049   0.02992   0.04177
  Beta virt. eigenvalues --    0.05231   0.10335   0.12494   0.13729   0.17325
  Beta virt. eigenvalues --    0.20487   0.20967   0.21445   0.29714   0.32721

 Mulliken charges and spin densities:
               1          2
     1  B    0.180874  -0.000000
     2  N   -0.723182   0.000000
     3  H    0.056909  -0.000000
     4  H    0.214245   0.000000
     5  H    0.056909  -0.000000
     6  H    0.214245   0.000000
 Sum of Mulliken charges =  -0.00000   0.00000

 Dipole moment (field-independent basis, Debye):
    X=             -4.2038    Y=              0.0003    Z=              1.7877  Tot=              4.5681
 Quadrupole moment (field-independent basis, Debye-Ang):
   XX=            -14.4020   YY=            -13.4129   ZZ=            -14.4829
   XY=              0.0005   XZ=              3.1160   YZ=             -0.0002

 Normal termination of Gaussian 16 at Mon Apr 21 17:50:30 2025.
