 Gaussian 16, Revision A.03,
 Gaussian 16:  ES64L-G16RevA.03 25-Dec-2016

 --------------------------------------------
 #p opt UM062X/6-311+G** nosymm int=superfine
 --------------------------------------------

 -------------------
 Title Card Required
 -------------------
 Symbolic Z-matrix:
 Charge =  0 Multiplicity = 1

 SCF Done:  E(UM062X) =  -115.507682827     A.U. after   15 cycles
 SCF Done:  E(UM062X) =  -115.523350552     A.U. after   11 cycles
 SCF Done:  E(UM062X) =  -115.531098722     A.U. after   11 cycles
 SCF Done:  E(UM062X) =  -115.531209582     A.U. after    9 cycles
 SCF Done:  E(UM062X) =  -115.531270032     A.U. after   12 cycles
 SCF Done:  E(UM062X) =  -115.531278226     A.U. after    9 cycles
 SCF Done:  E(UM062X) =  -115.531279312     A.U. after    9 cycles
 SCF Done:  E(UM062X) =  -115.531279873     A.U. after   10 cycles
 SCF Done:  E(UM062X) =  -115.531280155     A.U. after    8 cycles
 Optimization completed.
    -- Stationary point found.

                          Input orientation:
 ---------------------------------------------------------------------
 Center     Atomic      Atomic             Coordinates (Angstroms)
 Number     Number       Type             X           Y           Z
 ---------------------------------------------------------------------
      1          6           0       -1.357203    0.000000    0.000000
      2          8           0        1.357203    0.000000    0.000000
      3          1           0        1.405040   -0.964366    0.000276
      4          1           0       -1.462178   -0.529432    0.936449
      5          1           0       -1.347461    1.080425   -0.000768
      6          1           0       -1.462226   -0.530767   -0.935687
 ---------------------------------------------------------------------

 Alpha  occ. eigenvalues --  -19.59688 -10.65771  -1.01941  -0.83282  -0.55363
 Alpha  occ. eigenvalues --   -0.55099  -0.46367  -0.33321  -0.31465
 Alpha virt. eigenvalues --   -0.12519   0.00763   0.04194   0.04649   0.06492
 Alpha virt. eigenvalues --    0.14204   0.15897   0.16140   0.20163   0.22901
 Alpha virt. eigenvalues --    0.23058   0.24585   0.31755   0.39986   0.40475

  Beta  occ. eigenvalues --  -19.59688 -10.65771  -1.01941  -0.83282  -0.55363
  Beta  occ. eigenvalues --   -0.55099  -0.46367  -0.33321  -0.31465
  Beta virt. eigenvalues --   -0.12519   0.00763   0.04194   0.04649   0.06492
  Beta virt. eigenvalues --    0.14204   0.15897   0.16140   0.20163   0.22901
  Beta virt. eigenvalues --    0.23058   0.24585   0.31755   0.39986   0.40475

 Mulliken charges and spin densities:
               1          2
     1  C   -0.290423  -0.000000
     2  O   -0.558052   0.000000
     3  H    0.216420  -0.000000
     4  H    0.204998   0.000000
     5  H    0.222072   0.000000
     6  H    0.204985   0.000000
 Sum of Mulliken charges =  -0.00000  -0.00000

 Dipole moment (field-independent basis, Debye):
    X=             -4.7177    Y=             -1.5471    Z=              0.0004  Tot=              4.9648
 Quadrupole moment (field-independent basis, Debye-Ang):
   XX=            -13.2513   YY=            -11.4144   ZZ=            -13.8386
   XY=             -2.3921   XZ=              0.0007   YZ=             -0.0007

 Normal termination of Gaussian 16 at Mon Apr 21 18:42:32 2025.
