 Gaussian 16, Revision A.03,
 Gaussian 16:  ES64L-G16RevA.03 25-Dec-2016

 --------------------------------------------
 #p opt UM062X/6-311+G** nosymm int=superfine
 --------------------------------------------

 -------------------
 Title Card Required
 -------------------
 Symbolic Z-matrix:
 Charge =  0 Multiplicity = 1

 SCF Done:  E(UM062X) =  -115.502556772     A.U. after   15 cycles
 SCF Done:  E(UM062X) =  -115.518339087     A.U. after   11 cycles
 SCF Done:  E(UM062X) =  -115.526382083     A.U. after   11 cycles
 SCF Done:  E(UM062X) =  -115.526503445     A.U. after   10 cycles
 SCF Done:  E(UM062X) =  -115.526572464     A.U. after   12 cycles
 SCF Done:  E(UM062X) =  -115.526583642     A.U. after    9 cycles
 SCF Done:  E(UM062X) =  -115.526584890     A.U. after   10 cycles
 SCF Done:  E(UM062X) =  -115.526585395     A.U. after    8 cycles
 SCF Done:  E(UM062X) =  -115.526585714     A.U. after   10 cycles
 SCF Done:  E(UM062X) =  -115.526585808     A.U. after    7 cycles
 Optimization completed.
    -- Stationary point found.

                          Input orientation:
 ---------------------------------------------------------------------
 Center     Atomic      Atomic             Coordinates (Angstroms)
 Number     Number       Type             X           Y           Z
 ---------------------------------------------------------------------
      1          6           0       -1.382203    0.000000    0.000000
      2          8           0        1.382203    0.000000    0.000000
      3          1           0        1.427833   -0.964497    0.000264
      4          1           0       -1.482236   -0.529967    0.936762
      5          1           0       -1.365153    1.080454   -0.000772
      6          1           0       -1.482285   -0.531309   -0.935997
 ---------------------------------------------------------------------

 Alpha  occ. eigenvalues --  -19.59562 -10.65931  -1.01815  -0.83435  -0.55527
 Alpha  occ. eigenvalues --   -0.55261  -0.46261  -0.33214  -0.31140
 Alpha virt. eigenvalues --   -0.12924   0.00731   0.04155   0.04601   0.06493
 Alpha virt. eigenvalues --    0.14141   0.15798   0.16039   0.20146   0.22909
 Alpha virt. eigenvalues --    0.23052   0.24618   0.31525   0.39911   0.40367

  Beta  occ. eigenvalues --  -19.59562 -10.65931  -1.01815  -0.83435  -0.55527
  Beta  occ. eigenvalues --   -0.55261  -0.46261  -0.33214  -0.31140
  Beta virt. eigenvalues --   -0.12924   0.00731   0.04155   0.04601   0.06493
  Beta virt. eigenvalues --    0.14141   0.15798   0.16039   0.20146   0.22909
  Beta virt. eigenvalues --    0.23052   0.24618   0.31525   0.39911   0.40367

 Mulliken charges and spin densities:
               1          2
     1  C   -0.289468  -0.000000
     2  O   -0.560905   0.000000
     3  H    0.215897  -0.000000
     4  H    0.205868   0.000000
     5  H    0.222753   0.000000
     6  H    0.205855   0.000000
 Sum of Mulliken charges =  -0.00000   0.00000

 Dipole moment (field-independent basis, Debye):
    X=             -4.8278    Y=             -1.5485    Z=              0.0004  Tot=              5.0700
 Quadrupole moment (field-independent basis, Debye-Ang):
   XX=            -13.2442   YY=            -11.4181   ZZ=            -13.8428
   XY=             -2.4216   XZ=              0.0006   YZ=             -0.0007

 Normal termination of Gaussian 16 at Mon Apr 21 18:42:43 2025.
