 Gaussian 16, Revision A.03,
 Gaussian 16:  ES64L-G16RevA.03 25-Dec-2016

 --------------------------------------------
 #p opt UM062X/6-311+G** nosymm int=superfine
 --------------------------------------------

 -------------------
 Title Card Required
 -------------------
 Symbolic Z-matrix:
 Charge =  0 Multiplicity = 1

 SCF Done:  E(UM062X) =  -474.368075167     A.U. after   21 cycles
 SCF Done:  E(UM062X) =  -474.368374965     A.U. after   21 cycles
 SCF Done:  E(UM062X) =  -474.368374567     A.U. after   22 cycles
 SCF Done:  E(UM062X) =  -474.368375425     A.U. after   12 cycles
 SCF Done:  E(UM062X) =  -474.368375813     A.U. after   16 cycles
 SCF Done:  E(UM062X) =  -474.368376294     A.U. after   16 cycles
 SCF Done:  E(UM062X) =  -474.368376302     A.U. after   20 cycles
 Optimization completed.
    -- Stationary point found.

                          Input orientation:
 ---------------------------------------------------------------------
 Center     Atomic      Atomic             Coordinates (Angstroms)
 Number     Number       Type             X           Y           Z
 ---------------------------------------------------------------------
      1          8           0       -1.810993   -0.000124    0.000085
      2         16           0        1.811007    0.000192   -0.000181
      3          1           0       -1.776592    0.621601    0.744068
      4          1           0        1.555690   -0.549232   -1.203355
 ---------------------------------------------------------------------

 Alpha  occ. eigenvalues --  -89.97828 -19.67184  -8.34002  -6.26210  -6.25848
 Alpha  occ. eigenvalues --   -6.25279  -1.08409  -0.83904  -0.52496  -0.49770
 Alpha  occ. eigenvalues --   -0.39721  -0.35814  -0.33623
 Alpha virt. eigenvalues --   -0.22962   0.01571   0.03867   0.04691   0.05376
 Alpha virt. eigenvalues --    0.06777   0.13187   0.19223   0.19829   0.21107
 Alpha virt. eigenvalues --    0.24946   0.30783   0.33960   0.34553   0.39007

  Beta  occ. eigenvalues --  -89.97828 -19.67184  -8.34002  -6.26210  -6.25848
  Beta  occ. eigenvalues --   -6.25279  -1.08409  -0.83904  -0.52496  -0.49770
  Beta  occ. eigenvalues --   -0.39721  -0.35814  -0.33623
  Beta virt. eigenvalues --   -0.22962   0.01571   0.03867   0.04691   0.05376
  Beta virt. eigenvalues --    0.06777   0.13187   0.19223   0.19829   0.21107
  Beta virt. eigenvalues --    0.24946   0.30783   0.33960   0.34553   0.39007

 Mulliken charges and spin densities:
               1          2
     1  O   -0.389998   0.000000
     2  S    0.035692  -0.000000
     3  H    0.245508  -0.000000
     4  H    0.108798  -0.000000
 Sum of Mulliken charges =  -0.00000  -0.00000

 Dipole moment (field-independent basis, Debye):
    X=              2.3545    Y=              0.6351    Z=              0.2640  Tot=              2.4529
 Quadrupole moment (field-independent basis, Debye-Ang):
   XX=            -18.5797   YY=            -21.0091   ZZ=            -17.8680
   XY=             -2.9528   XZ=             -4.3927   YZ=              2.7813

 Normal termination of Gaussian 16 at Tue Apr 22 01:58:51 2025.
