 Gaussian 16, Revision A.03,
 Gaussian 16:  ES64L-G16RevA.03 25-Dec-2016

 --------------------------------------------
 #p opt UM062X/6-311+G** nosymm int=superfine
 --------------------------------------------

 -------------------
 Title Card Required
 -------------------
 Symbolic Z-matrix:
 Charge =  0 Multiplicity = 1

 SCF Done:  E(UM062X) =  -78.2249999340     A.U. after    8 cycles
 SCF Done:  E(UM062X) =  -78.2256547471     A.U. after    9 cycles
 SCF Done:  E(UM062X) =  -78.2259836936     A.U. after    9 cycles
 Optimization completed.
    -- Stationary point found.

                          Input orientation:
 ---------------------------------------------------------------------
 Center     Atomic      Atomic             Coordinates (Angstroms)
 Number     Number       Type             X           Y           Z
 ---------------------------------------------------------------------
      1          6           0       -1.310595    0.000000    0.000000
      2          6           0        1.310595    0.000000    0.000000
      3          1           0       -1.712877   -0.999646    0.000000
      4          1           0       -1.712872    0.999651    0.000000
      5          1           0        1.712877    0.999646   -0.000000
      6          1           0        1.712872   -0.999651   -0.000000
 ---------------------------------------------------------------------

 Alpha  occ. eigenvalues --  -10.62931 -10.62925  -0.75932  -0.73778  -0.53640
 Alpha  occ. eigenvalues --   -0.52730  -0.31348  -0.23618
 Alpha virt. eigenvalues --   -0.10674  -0.06722   0.03382   0.05288   0.05393
 Alpha virt. eigenvalues --    0.06971   0.09401   0.10274   0.11127   0.14210
 Alpha virt. eigenvalues --    0.16259   0.18765   0.21501   0.27121   0.39561

  Beta  occ. eigenvalues --  -10.62931 -10.62925  -0.75932  -0.73778  -0.53640
  Beta  occ. eigenvalues --   -0.52730  -0.31348  -0.23618
  Beta virt. eigenvalues --   -0.10674  -0.06722   0.03382   0.05288   0.05393
  Beta virt. eigenvalues --    0.06971   0.09401   0.10274   0.11127   0.14210
  Beta virt. eigenvalues --    0.16259   0.18765   0.21501   0.27121   0.39561

 Mulliken charges and spin densities:
               1          2
     1  C   -0.383773  -0.000000
     2  C   -0.383773   0.000000
     3  H    0.191886   0.000000
     4  H    0.191887   0.000000
     5  H    0.191886  -0.000000
     6  H    0.191887  -0.000000
 Sum of Mulliken charges =  -0.00000   0.00000

 Dipole moment (field-independent basis, Debye):
    X=              0.0000    Y=             -0.0000    Z=              0.0000  Tot=              0.0000
 Quadrupole moment (field-independent basis, Debye-Ang):
   XX=            -10.0490   YY=            -11.8675   ZZ=            -19.0007
   XY=              0.0000   XZ=             -0.0000   YZ=              0.0000

 Normal termination of Gaussian 16 at Tue Dec  3 11:07:00 2024.
