 Gaussian 16, Revision A.03,
 Gaussian 16:  ES64L-G16RevA.03 25-Dec-2016

 --------------------------------------------
 #p opt UM062X/6-311+G** nosymm int=superfine
 --------------------------------------------

 -------------------
 Title Card Required
 -------------------
 Symbolic Z-matrix:
 Charge =  1 Multiplicity = 2

 SCF Done:  E(UM062X) =  -379.310877611     A.U. after   57 cycles
 SCF Done:  E(UM062X) =  -379.311376282     A.U. after   19 cycles
 Optimization completed.
    -- Stationary point found.

                          Input orientation:
 ---------------------------------------------------------------------
 Center     Atomic      Atomic             Coordinates (Angstroms)
 Number     Number       Type             X           Y           Z
 ---------------------------------------------------------------------
      1          6           0       -1.569427    0.000000    0.000000
      2         15           0        1.569427    0.000000    0.000000
      3          1           0       -2.682265   -0.000001    0.000000
 ---------------------------------------------------------------------

 Alpha  occ. eigenvalues --  -78.36633 -10.95745  -7.18109  -5.30032  -5.29827
 Alpha  occ. eigenvalues --   -5.28395  -0.99858  -0.87478  -0.66042  -0.50467
 Alpha  occ. eigenvalues --   -0.48463
 Alpha virt. eigenvalues --   -0.40274  -0.37904  -0.35608  -0.12786  -0.10224
 Alpha virt. eigenvalues --   -0.08429  -0.08152  -0.06857  -0.05327  -0.05194
 Alpha virt. eigenvalues --   -0.01204   0.01660   0.15047   0.15319   0.16138

  Beta  occ. eigenvalues --  -78.36422 -10.95336  -7.18104  -5.29798  -5.28962
  Beta  occ. eigenvalues --   -5.28869  -0.96542  -0.85480  -0.64355  -0.50351
  Beta virt. eigenvalues --   -0.34742  -0.34114  -0.31978  -0.30981  -0.14027
  Beta virt. eigenvalues --   -0.10783  -0.08464  -0.08387  -0.07419  -0.05049
  Beta virt. eigenvalues --   -0.04739  -0.02964   0.03625   0.12696   0.14794

 Mulliken charges and spin densities:
               1          2
     1  C    0.107404   0.679745
     2  P    0.626439   0.341779
     3  H    0.266157  -0.021524
 Sum of Mulliken charges =   1.00000   1.00000

 Dipole moment (field-independent basis, Debye):
    X=             -0.4849    Y=             -0.0000    Z=              0.0000  Tot=              0.4849
 Quadrupole moment (field-independent basis, Debye-Ang):
   XX=              5.8533   YY=            -18.8047   ZZ=            -17.4638
   XY=              0.0000   XZ=              0.0000   YZ=              1.6106

 Normal termination of Gaussian 16 at Mon Apr 21 19:24:10 2025.
