 Gaussian 16, Revision A.03,
 Gaussian 16:  ES64L-G16RevA.03 25-Dec-2016

 --------------------------------------------
 #p opt UM062X/6-311+G** nosymm int=superfine
 --------------------------------------------

 -------------------
 Title Card Required
 -------------------
 Symbolic Z-matrix:
 Charge =  0 Multiplicity = 1

 SCF Done:  E(UM062X) =  -581.269302702     A.U. after    9 cycles
 SCF Done:  E(UM062X) =  -581.269321192     A.U. after    6 cycles
 SCF Done:  E(UM062X) =  -581.269326275     A.U. after    6 cycles
 Optimization completed.
    -- Stationary point found.

                          Input orientation:
 ---------------------------------------------------------------------
 Center     Atomic      Atomic             Coordinates (Angstroms)
 Number     Number       Type             X           Y           Z
 ---------------------------------------------------------------------
      1         14           0       -1.112518    0.000000    0.000000
      2         14           0        1.112518    0.000000    0.000000
      3          1           0       -1.884585   -1.253213    0.000509
      4          1           0        1.884585    1.253213   -0.000280
      5          1           0       -1.884586    1.253213   -0.000400
      6          1           0        1.884586   -1.253213    0.000389
 ---------------------------------------------------------------------

 Alpha  occ. eigenvalues --  -67.00620 -67.00619  -5.55699  -5.55685  -3.86901
 Alpha  occ. eigenvalues --   -3.86889  -3.86784  -3.86709  -3.86699  -3.86693
 Alpha  occ. eigenvalues --   -0.63400  -0.56108  -0.43892  -0.41583  -0.37683
 Alpha  occ. eigenvalues --   -0.24256
 Alpha virt. eigenvalues --   -0.04624   0.00941   0.02243   0.03147   0.03615
 Alpha virt. eigenvalues --    0.04857   0.04863   0.05781   0.06330   0.07309
 Alpha virt. eigenvalues --    0.07630   0.09079   0.13272   0.23881   0.25047

  Beta  occ. eigenvalues --  -67.00620 -67.00619  -5.55699  -5.55685  -3.86901
  Beta  occ. eigenvalues --   -3.86889  -3.86784  -3.86709  -3.86699  -3.86693
  Beta  occ. eigenvalues --   -0.63400  -0.56108  -0.43892  -0.41583  -0.37683
  Beta  occ. eigenvalues --   -0.24256
  Beta virt. eigenvalues --   -0.04624   0.00941   0.02243   0.03147   0.03615
  Beta virt. eigenvalues --    0.04857   0.04863   0.05781   0.06330   0.07309
  Beta virt. eigenvalues --    0.07630   0.09079   0.13272   0.23881   0.25047

 Mulliken charges and spin densities:
               1          2
     1  Si   0.130229  -0.000000
     2  Si   0.130230   0.000000
     3  H   -0.065115  -0.000000
     4  H   -0.065115  -0.000000
     5  H   -0.065115   0.000000
     6  H   -0.065115  -0.000000
 Sum of Mulliken charges =  -0.00000   0.00000

 Dipole moment (field-independent basis, Debye):
    X=              0.0000    Y=              0.0000    Z=             -0.0000  Tot=              0.0000
 Quadrupole moment (field-independent basis, Debye-Ang):
   XX=            -27.4358   YY=            -29.1790   ZZ=            -32.3894
   XY=              0.0000   XZ=             -0.0000   YZ=             -0.0010

 Normal termination of Gaussian 16 at Mon Apr 21 20:28:01 2025.
