 Gaussian 16, Revision A.03,
 Gaussian 16:  ES64L-G16RevA.03 25-Dec-2016

 ----------------------------------------------------------------------
 #p opt UM062X/6-311+G** nosymm int=superfine SCF=(MaxCycle=200,NoVarAc
 c,noincfock) guess=read
 ----------------------------------------------------------------------

 -------------------
 Title Card Required
 -------------------
 Symbolic Z-matrix:
 Charge =  0 Multiplicity = 1

 SCF Done:  E(UM062X) =  -94.2589180751     A.U. after   98 cycles
 SCF Done:  E(UM062X) =  -94.2589749659     A.U. after  128 cycles
 SCF Done:  E(UM062X) =  -94.2590392619     A.U. after   22 cycles
 SCF Done:  E(UM062X) =  -94.2590812699     A.U. after   60 cycles
 SCF Done:  E(UM062X) =  -94.2589850970     A.U. after   31 cycles
 SCF Done:  E(UM062X) =  -94.2590213716     A.U. after   14 cycles
 SCF Done:  E(UM062X) =  -94.2590653802     A.U. after   74 cycles
 SCF Done:  E(UM062X) =  -94.2590731138     A.U. after    7 cycles
 SCF Done:  E(UM062X) =  -94.2590732689     A.U. after   10 cycles
 SCF Done:  E(UM062X) =  -94.2592050315     A.U. after   74 cycles
 SCF Done:  E(UM062X) =  -94.2595148218     A.U. after   16 cycles
 SCF Done:  E(UM062X) =  -94.2595267563     A.U. after   28 cycles
 SCF Done:  E(UM062X) =  -94.2595295743     A.U. after    9 cycles
 SCF Done:  E(UM062X) =  -94.2595319690     A.U. after   13 cycles
 SCF Done:  E(UM062X) =  -94.2595335077     A.U. after   75 cycles
 SCF Done:  E(UM062X) =  -94.2595346915     A.U. after   35 cycles
 SCF Done:  E(UM062X) =  -94.2595350351     A.U. after   10 cycles
 SCF Done:  E(UM062X) =  -94.2595356918     A.U. after   36 cycles
 SCF Done:  E(UM062X) =  -94.2595357791     A.U. after   10 cycles
 SCF Done:  E(UM062X) =  -94.2595358187     A.U. after   10 cycles
 Optimization completed.
    -- Stationary point found.

                          Input orientation:
 ---------------------------------------------------------------------
 Center     Atomic      Atomic             Coordinates (Angstroms)
 Number     Number       Type             X           Y           Z
 ---------------------------------------------------------------------
      1          6           0       -1.931265   -0.000000   -0.000000
      2          7           0        1.931265    0.000000    0.000000
      3          1           0       -2.621388   -0.865110    0.014381
      4          1           0        0.889614    0.000018   -0.000014
      5          1           0       -2.621846    0.864736   -0.014657
 ---------------------------------------------------------------------

 Alpha  occ. eigenvalues --  -14.81388 -10.62714  -0.87744  -0.77413  -0.49514
 Alpha  occ. eigenvalues --   -0.44728  -0.33527  -0.32287
 Alpha virt. eigenvalues --   -0.11228  -0.09991   0.01179   0.05307   0.06410
 Alpha virt. eigenvalues --    0.07396   0.13536   0.13839   0.15588   0.17341
 Alpha virt. eigenvalues --    0.17948   0.18191   0.21838   0.43039   0.47321

  Beta  occ. eigenvalues --  -14.81388 -10.62714  -0.87744  -0.77413  -0.49514
  Beta  occ. eigenvalues --   -0.44728  -0.33527  -0.32287
  Beta virt. eigenvalues --   -0.11228  -0.09991   0.01179   0.05307   0.06410
  Beta virt. eigenvalues --    0.07396   0.13536   0.13839   0.15588   0.17341
  Beta virt. eigenvalues --    0.17948   0.18191   0.21838   0.43039   0.47321

 Mulliken charges and spin densities:
               1          2
     1  C   -0.302486   0.000000
     2  N   -0.245850  -0.000000
     3  H    0.144320   0.000000
     4  H    0.259685   0.000000
     5  H    0.144330  -0.000000
 Sum of Mulliken charges =  -0.00000   0.00000

 Dipole moment (field-independent basis, Debye):
    X=             -4.1488    Y=             -0.0005    Z=             -0.0004  Tot=              4.1488
 Quadrupole moment (field-independent basis, Debye-Ang):
   XX=            -13.5527   YY=            -12.2429   ZZ=            -14.8968
   XY=              0.0006   XZ=              0.0003   YZ=             -0.0421

 Normal termination of Gaussian 16 at Mon Apr 21 22:43:57 2025.
