 Gaussian 16, Revision A.03,
 Gaussian 16:  ES64L-G16RevA.03 25-Dec-2016

 --------------------------------------------
 #p opt UM062X/6-311+G** nosymm int=superfine
 --------------------------------------------

 -------------------
 Title Card Required
 -------------------
 Symbolic Z-matrix:
 Charge =  0 Multiplicity = 1

 SCF Done:  E(UM062X) =  -115.438319168     A.U. after   44 cycles
 SCF Done:  E(UM062X) =  -115.454595188     A.U. after   12 cycles
 SCF Done:  E(UM062X) =  -115.464717024     A.U. after   14 cycles
 SCF Done:  E(UM062X) =  -115.464837592     A.U. after   14 cycles
 SCF Done:  E(UM062X) =  -115.464887111     A.U. after   10 cycles
 SCF Done:  E(UM062X) =  -115.465027822     A.U. after   18 cycles
 SCF Done:  E(UM062X) =  -115.465057079     A.U. after   12 cycles
 SCF Done:  E(UM062X) =  -115.465063852     A.U. after   11 cycles
 SCF Done:  E(UM062X) =  -115.465064082     A.U. after   10 cycles
 Optimization completed.
    -- Stationary point found.

                          Input orientation:
 ---------------------------------------------------------------------
 Center     Atomic      Atomic             Coordinates (Angstroms)
 Number     Number       Type             X           Y           Z
 ---------------------------------------------------------------------
      1          6           0       -1.932203    0.000000    0.000000
      2          8           0        1.932203    0.000000    0.000000
      3          1           0        1.998558   -0.963525    0.000613
      4          1           0       -1.997330   -0.534716    0.937812
      5          1           0       -1.827472    1.076500   -0.000646
      6          1           0       -1.997235   -0.535845   -0.937174
 ---------------------------------------------------------------------

 Alpha  occ. eigenvalues --  -19.58279 -10.67236  -1.00740  -0.85164  -0.57249
 Alpha  occ. eigenvalues --   -0.57078  -0.45273  -0.32235  -0.27220
 Alpha virt. eigenvalues --   -0.17826   0.00282   0.03572   0.03801   0.06889
 Alpha virt. eigenvalues --    0.13099   0.14498   0.14652   0.18771   0.22661
 Alpha virt. eigenvalues --    0.23071   0.24987   0.28354   0.38861   0.39052

  Beta  occ. eigenvalues --  -19.58279 -10.67236  -1.00740  -0.85164  -0.57249
  Beta  occ. eigenvalues --   -0.57078  -0.45273  -0.32235  -0.27220
  Beta virt. eigenvalues --   -0.17826   0.00282   0.03572   0.03801   0.06889
  Beta virt. eigenvalues --    0.13099   0.14498   0.14652   0.18771   0.22661
  Beta virt. eigenvalues --    0.23071   0.24987   0.28354   0.38861   0.39052

 Mulliken charges and spin densities:
               1          2
     1  C   -0.291654   0.000000
     2  O   -0.562064  -0.000000
     3  H    0.213143  -0.000000
     4  H    0.209956   0.000000
     5  H    0.220660  -0.000000
     6  H    0.209959  -0.000000
 Sum of Mulliken charges =  -0.00000   0.00000

 Dipole moment (field-independent basis, Debye):
    X=             -6.5357    Y=             -1.5882    Z=              0.0010  Tot=              6.7259
 Quadrupole moment (field-independent basis, Debye-Ang):
   XX=            -13.1389   YY=            -11.5065   ZZ=            -13.9209
   XY=             -3.2574   XZ=              0.0020   YZ=             -0.0015

 Normal termination of Gaussian 16 at Mon Apr 21 18:46:10 2025.
