 Gaussian 16, Revision A.03,
 Gaussian 16:  ES64L-G16RevA.03 25-Dec-2016

 --------------------------------------------
 #p opt UM062X/6-311+G** nosymm int=superfine
 --------------------------------------------

 -------------------
 Title Card Required
 -------------------
 Symbolic Z-matrix:
 Charge =  0 Multiplicity = 1

 SCF Done:  E(UM062X) =  -76.9193817377     A.U. after   14 cycles
 SCF Done:  E(UM062X) =  -76.9206332381     A.U. after   13 cycles
 SCF Done:  E(UM062X) =  -76.9215175777     A.U. after   14 cycles
 SCF Done:  E(UM062X) =  -76.9215753923     A.U. after   14 cycles
 SCF Done:  E(UM062X) =  -76.9215755898     A.U. after   11 cycles
 SCF Done:  E(UM062X) =  -76.9215755945     A.U. after   11 cycles
 Optimization completed.
    -- Stationary point found.

                          Input orientation:
 ---------------------------------------------------------------------
 Center     Atomic      Atomic             Coordinates (Angstroms)
 Number     Number       Type             X           Y           Z
 ---------------------------------------------------------------------
      1          6           0       -1.457625    0.000000    0.000000
      2          6           0        1.457625    0.000000    0.000000
      3          1           0       -1.368306   -0.089901    1.109999
      4          1           0        1.368491    0.914966   -0.634854
 ---------------------------------------------------------------------

 Alpha  occ. eigenvalues --  -10.67187 -10.67184  -0.73267  -0.71284  -0.38804
 Alpha  occ. eigenvalues --   -0.38509  -0.26259
 Alpha virt. eigenvalues --   -0.10311  -0.09017  -0.08372   0.03145   0.05266
 Alpha virt. eigenvalues --    0.07354   0.07526   0.09720   0.09986   0.10680
 Alpha virt. eigenvalues --    0.14763   0.18327   0.19126   0.44375   0.45970

  Beta  occ. eigenvalues --  -10.67187 -10.67184  -0.73267  -0.71284  -0.38804
  Beta  occ. eigenvalues --   -0.38509  -0.26259
  Beta virt. eigenvalues --   -0.10311  -0.09017  -0.08372   0.03145   0.05266
  Beta virt. eigenvalues --    0.07354   0.07526   0.09720   0.09986   0.10680
  Beta virt. eigenvalues --    0.14763   0.18327   0.19126   0.44375   0.45970

 Mulliken charges and spin densities:
               1          2
     1  C   -0.141304  -0.000000
     2  C   -0.141336   0.000000
     3  H    0.141321  -0.000000
     4  H    0.141319   0.000000
 Sum of Mulliken charges =   0.00000  -0.00000

 Dipole moment (field-independent basis, Debye):
    X=              0.0001    Y=              1.1940    Z=              0.6876  Tot=              1.3779
 Quadrupole moment (field-independent basis, Debye-Ang):
   XX=            -16.9512   YY=            -12.7399   ZZ=            -13.6056
   XY=              2.2052   XZ=             -3.8290   YZ=              0.7460

 Normal termination of Gaussian 16 at Tue Dec  3 22:13:59 2024.
