 Gaussian 16, Revision A.03,
 Gaussian 16:  ES64L-G16RevA.03 25-Dec-2016

 --------------------------------------------
 #p opt UM062X/6-311+G** nosymm int=superfine
 --------------------------------------------

 -------------------
 Title Card Required
 -------------------
 Symbolic Z-matrix:
 Charge =  1 Multiplicity = 2

 SCF Done:  E(UM062X) =  -582.130559606     A.U. after   11 cycles
 SCF Done:  E(UM062X) =  -582.131387700     A.U. after    9 cycles
 SCF Done:  E(UM062X) =  -582.131676518     A.U. after   10 cycles
 SCF Done:  E(UM062X) =  -582.131677581     A.U. after    8 cycles
 Optimization completed.
    -- Stationary point found.

                          Input orientation:
 ---------------------------------------------------------------------
 Center     Atomic      Atomic             Coordinates (Angstroms)
 Number     Number       Type             X           Y           Z
 ---------------------------------------------------------------------
      1         14           0       -2.551292    0.000000    0.000000
      2         14           0        2.551292    0.000000    0.000000
      3          1           0        2.652122   -1.460711   -0.000014
      4          1           0       -2.651273   -0.730232    1.265150
      5          1           0        2.651806    0.730399   -1.265011
      6          1           0        2.651060    0.730317    1.265118
      7          1           0       -2.652149    1.460709   -0.000139
      8          1           0       -2.651567   -0.730487   -1.264979
 ---------------------------------------------------------------------

 Alpha  occ. eigenvalues --  -67.21925 -67.21925  -5.76778  -5.76778  -4.08469
 Alpha  occ. eigenvalues --   -4.08469  -4.07652  -4.07652  -4.07652  -4.07652
 Alpha  occ. eigenvalues --   -0.80484  -0.80260  -0.60932  -0.60930  -0.60894
 Alpha  occ. eigenvalues --   -0.60893  -0.38824
 Alpha virt. eigenvalues --   -0.30362  -0.11586  -0.11485  -0.09856  -0.09027
 Alpha virt. eigenvalues --   -0.09025  -0.07895  -0.07895  -0.07532  -0.06988
 Alpha virt. eigenvalues --   -0.06988  -0.05979  -0.05979  -0.04856   0.00325

  Beta  occ. eigenvalues --  -67.21647 -67.21647  -5.76695  -5.76694  -4.07818
  Beta  occ. eigenvalues --   -4.07818  -4.07556  -4.07556  -4.07556  -4.07556
  Beta  occ. eigenvalues --   -0.78762  -0.78654  -0.60844  -0.60843  -0.60802
  Beta  occ. eigenvalues --   -0.60801
  Beta virt. eigenvalues --   -0.31820  -0.23497  -0.16123  -0.11800  -0.11798
  Beta virt. eigenvalues --   -0.10614  -0.10171  -0.08460  -0.08459  -0.07419
  Beta virt. eigenvalues --   -0.06494  -0.06494  -0.05543  -0.05532  -0.05532

 Mulliken charges and spin densities:
               1          2
     1  Si   0.512623   0.559169
     2  Si   0.512624   0.559169
     3  H   -0.004206  -0.019726
     4  H   -0.004210  -0.019720
     5  H   -0.004205  -0.019723
     6  H   -0.004212  -0.019719
     7  H   -0.004206  -0.019727
     8  H   -0.004208  -0.019722
 Sum of Mulliken charges =   1.00000   1.00000

 Dipole moment (field-independent basis, Debye):
    X=              0.0000    Y=             -0.0000    Z=              0.0001  Tot=              0.0001
 Quadrupole moment (field-independent basis, Debye-Ang):
   XX=             10.4826   YY=            -26.2542   ZZ=            -26.2539
   XY=              0.0008   XZ=              0.0001   YZ=             -0.0000

 Normal termination of Gaussian 16 at Mon Apr 21 20:17:24 2025.
