 Gaussian 16, Revision A.03,
 Gaussian 16:  ES64L-G16RevA.03 25-Dec-2016

 ---------------------------------------------
 #p opt=calcall UM062X/6-311+G** int=superfine
 ---------------------------------------------

 -------------------
 Title Card Required
 -------------------
 Symbolic Z-matrix:
 Charge =  1 Multiplicity = 2

 SCF Done:  E(UM062X) =  -78.1841766939     A.U. after    9 cycles
 SCF Done:  E(UM062X) =  -78.1844659140     A.U. after   11 cycles
 SCF Done:  E(UM062X) =  -78.1845573579     A.U. after    9 cycles
 SCF Done:  E(UM062X) =  -78.1845578662     A.U. after    7 cycles
 Optimization completed.
    -- Stationary point found.

                         Standard orientation:
 ---------------------------------------------------------------------
 Center     Atomic      Atomic             Coordinates (Angstroms)
 Number     Number       Type             X           Y           Z
 ---------------------------------------------------------------------
      1          6           0        0.000000    0.701158    0.000000
      2          6           0        0.000000   -0.701158    0.000000
      3          1           0        0.920317    1.257996   -0.164109
      4          1           0       -0.920317    1.257997    0.164109
      5          1           0       -0.920317   -1.257996   -0.164109
      6          1           0        0.920317   -1.257997    0.164109
 ---------------------------------------------------------------------

 The electronic state is 2-A.
 Alpha  occ. eigenvalues --  -10.89405 -10.89323  -1.18620  -0.97712  -0.84716
 Alpha  occ. eigenvalues --   -0.79660  -0.73731  -0.65556
 Alpha virt. eigenvalues --   -0.29717  -0.14709  -0.12647  -0.12437  -0.09782
 Alpha virt. eigenvalues --   -0.07785  -0.06818  -0.04482  -0.04308  -0.02166
 Alpha virt. eigenvalues --   -0.00873   0.01288   0.07708   0.10229   0.20757

  Beta  occ. eigenvalues --  -10.89182 -10.89111  -1.14795  -0.95655  -0.83271
  Beta  occ. eigenvalues --   -0.78672  -0.73066
  Beta virt. eigenvalues --   -0.41251  -0.23071  -0.16432  -0.12599  -0.12592
  Beta virt. eigenvalues --   -0.10709  -0.08616  -0.06760  -0.04262  -0.03923
  Beta virt. eigenvalues --   -0.01389  -0.00898   0.00929   0.09182   0.10714

 Mulliken charges and spin densities:
               1          2
     1  C   -0.056611   0.525468
     2  C   -0.056611   0.525468
     3  H    0.278305  -0.012734
     4  H    0.278305  -0.012734
     5  H    0.278305  -0.012734
     6  H    0.278305  -0.012734
 Sum of Mulliken charges =   1.00000   1.00000

 Dipole moment (field-independent basis, Debye):
    X=             -0.0000    Y=              0.0000    Z=             -0.0000  Tot=              0.0000
 Quadrupole moment (field-independent basis, Debye-Ang):
   XX=             -8.4520   YY=             -5.4456   ZZ=            -11.5070
   XY=             -0.0000   XZ=             -0.0000   YZ=              0.0000

  Exact polarizability:  17.243   0.000  26.936  -0.000   0.000  11.028
 Approx polarizability:  18.226   0.000  27.995   0.000   0.000  12.773

                      1                      2                      3
                      A                      B                      A
 Frequencies --    429.5335               819.7271               950.3102
 Red. masses --      1.0306                 1.0467                 1.1625
 Frc consts  --      0.1120                 0.4144                 0.6186
 IR Inten    --      0.0000                 4.9880                44.8163

                      4                      5                      6
                      B                      A                      A
 Frequencies --   1103.2458              1225.6091              1291.6225
 Red. masses --      1.4805                 1.4615                 1.8510
 Frc consts  --      1.0617                 1.2935                 1.8194
 IR Inten    --      0.0295                 6.9843                 0.0000

                      7                      8                      9
                      B                      A                      B
 Frequencies --   1460.0533              1555.8232              3137.5016
 Red. masses --      1.1122                 1.6461                 1.0476
 Frc consts  --      1.3969                 2.3476                 6.0757
 IR Inten    --     41.4589                 0.0000                73.9884

                     10                     11                     12
                      A                      A                      B
 Frequencies --   3139.6516              3244.0002              3259.4282
 Red. masses --      1.0616                 1.1245                 1.1203
 Frc consts  --      6.1658                 6.9720                 7.0121
 IR Inten    --      0.0000                 1.2661                80.6103

 - Thermochemistry -
 -------------------
 Temperature   298.150 Kelvin.  Pressure   1.00000 Atm.
 Atom     1 has atomic number  6 and mass  12.00000

 Molecular mass:    28.03130 amu.
 Principal axes and moments of inertia in atomic units:
                           1         2         3
     Eigenvalues --    12.58091  65.30504  77.11053
           X           -0.00000   1.00000   0.00000
           Y            1.00000   0.00000   0.00000
           Z           -0.00000   0.00000   1.00000
 This molecule is an asymmetric top.
 Rotational symmetry number  2.
 Rotational temperatures (Kelvin)      6.88455     1.32630     1.12324
 Rotational constants (GHZ):         143.45077    27.63556    23.40460
 Zero-point vibrational energy     129295.4 (Joules/Mol)
                                   30.90235 (Kcal/Mol)
 Warning -- explicit consideration of   1 degrees of freedom as
           vibrations may cause significant error
 Vibrational temperatures:    618.00  1179.40  1367.28  1587.32  1763.38
          (Kelvin)           1858.36  2100.69  2238.48  4514.17  4517.26
                             4667.39  4689.59

 Zero-point correction=                           0.049246 (Hartree/Particle)
 Thermal correction to Energy=                    0.052539
 Thermal correction to Enthalpy=                  0.053483
 Thermal correction to Gibbs Free Energy=         0.026860
 Sum of electronic and zero-point Energies=            -78.135312
 Sum of electronic and thermal Energies=               -78.132019
 Sum of electronic and thermal Enthalpies=             -78.131075
 Sum of electronic and thermal Free Energies=          -78.157697

                     E (Thermal)             CV                S
                      KCal/Mol        Cal/Mol-Kelvin    Cal/Mol-Kelvin
 Total                   32.969              9.187             56.032
 Electronic               0.000              0.000              1.377
 Translational            0.889              2.981             35.927
 Rotational               0.889              2.981             17.411
 Vibrational             31.191              3.226              1.316
 Vibration     1          0.791              1.406              0.860

 Normal termination of Gaussian 16 at Mon Nov 25 04:44:59 2024.
