 Gaussian 16, Revision A.03,
 Gaussian 16:  ES64L-G16RevA.03 25-Dec-2016

 ---------------------------------------
 #p UM062X/6-311+G** force int=superfine
 ---------------------------------------

 -------------------
 Title Card Required
 -------------------
 Symbolic Z-matrix:
 Charge =  0 Multiplicity = 1

                         Standard orientation:
 ---------------------------------------------------------------------
 Center     Atomic      Atomic             Coordinates (Angstroms)
 Number     Number       Type             X           Y           Z
 ---------------------------------------------------------------------
      1          7           0        0.000000    0.000000    0.770048
      2          7           0        0.000000    0.000000   -0.770048
 ---------------------------------------------------------------------

 SCF Done:  E(UM062X) =  -109.274936594     A.U. after    9 cycles

 The electronic state is 1-SGG.
 Alpha  occ. eigenvalues --  -14.94844 -14.94803  -1.03249  -0.75576  -0.47953
 Alpha  occ. eigenvalues --   -0.43246  -0.43246
 Alpha virt. eigenvalues --   -0.12045  -0.12045   0.05835   0.07719   0.11201
 Alpha virt. eigenvalues --    0.11201   0.15383   0.16012   0.16231   0.16231
 Alpha virt. eigenvalues --    0.26030   0.77232   0.77232   0.77449   0.79466

  Beta  occ. eigenvalues --  -14.94844 -14.94803  -1.03249  -0.75576  -0.47953
  Beta  occ. eigenvalues --   -0.43246  -0.43246
  Beta virt. eigenvalues --   -0.12045  -0.12045   0.05835   0.07719   0.11201
  Beta virt. eigenvalues --    0.11201   0.15383   0.16012   0.16231   0.16231
  Beta virt. eigenvalues --    0.26030   0.77232   0.77232   0.77449   0.79466

 Mulliken charges and spin densities:
               1          2
     1  N    0.000000  -0.000000
     2  N    0.000000  -0.000000
 Sum of Mulliken charges =   0.00000  -0.00000

 Dipole moment (field-independent basis, Debye):
    X=              0.0000    Y=              0.0000    Z=              0.0000  Tot=              0.0000
 Quadrupole moment (field-independent basis, Debye-Ang):
   XX=            -11.5050   YY=            -11.5050   ZZ=            -11.8307
   XY=              0.0000   XZ=              0.0000   YZ=             -0.0000

 Optimization completed.
    -- Stationary point found.
 Normal termination of Gaussian 16 at Wed Feb 26 13:45:19 2025.
