 Gaussian 16, Revision A.03,
 Gaussian 16:  ES64L-G16RevA.03 25-Dec-2016

 ---------------------------------------------------
 #p UM062X/6-311+G** force int=superfine pop=saveNBO
 ---------------------------------------------------

 -------------------
 Title Card Required
 -------------------
 Symbolic Z-matrix:
 Charge =  0 Multiplicity = 1

                         Standard orientation:
 ---------------------------------------------------------------------
 Center     Atomic      Atomic             Coordinates (Angstroms)
 Number     Number       Type             X           Y           Z
 ---------------------------------------------------------------------
      1          8           0        0.000000    0.000000   -1.093424
      2         16           0        0.000000    0.000000    0.546712
 ---------------------------------------------------------------------

 SCF Done:  E(UM062X) =  -473.276530909     A.U. after   11 cycles

 Unable to determine electronic state:  an orbital has unidentified symmetry.
 Alpha  occ. eigenvalues --  -90.01028 -19.71870  -8.36846  -6.29015  -6.28848
 Alpha  occ. eigenvalues --   -6.28011  -1.14597  -0.77089  -0.50465  -0.48457
 Alpha  occ. eigenvalues --   -0.46170  -0.31282
 Alpha virt. eigenvalues --   -0.15851  -0.00311   0.02245   0.04518   0.05274
 Alpha virt. eigenvalues --    0.08802   0.19160   0.21026   0.21492   0.27421
 Alpha virt. eigenvalues --    0.32866   0.33813   0.35650   0.65666   0.74384

  Beta  occ. eigenvalues --  -90.01028 -19.71870  -8.36846  -6.29015  -6.28848
  Beta  occ. eigenvalues --   -6.28011  -1.14597  -0.77089  -0.50465  -0.48457
  Beta  occ. eigenvalues --   -0.46170  -0.31282
  Beta virt. eigenvalues --   -0.15851  -0.00311   0.02245   0.04518   0.05274
  Beta virt. eigenvalues --    0.08802   0.19160   0.21026   0.21492   0.27421
  Beta virt. eigenvalues --    0.32866   0.33813   0.35650   0.65666   0.74384

 Mulliken charges and spin densities:
               1          2
     1  O   -0.240648   0.000000
     2  S    0.240648  -0.000000
 Sum of Mulliken charges =  -0.00000   0.00000

 Dipole moment (field-independent basis, Debye):
    X=              0.0000    Y=              0.0000    Z=              2.1291  Tot=              2.1291
 Quadrupole moment (field-independent basis, Debye-Ang):
   XX=            -20.0694   YY=            -16.1114   ZZ=            -18.8795
   XY=              0.0000   XZ=              0.0000   YZ=              0.0000

 Summary of Natural Population Analysis:

                                       Natural Population
                Natural  -----------------------------------------------
    Atom  No    Charge         Core      Valence    Rydberg      Total
 -----------------------------------------------------------------------
      O    1   -0.27226      0.99997     3.26755    0.00474     4.27226
      S    2    0.27226      4.99985     2.69842    0.02947     7.72774
 =======================================================================
   * Total *    0.00000      5.99982     5.96597    0.03421    12.00000

 Normal termination of Gaussian 16 at Mon Apr 21 19:54:52 2025.
