 Gaussian 16, Revision A.03,
 Gaussian 16:  ES64L-G16RevA.03 25-Dec-2016

 --------------------------------------------
 #p opt UM062X/6-311+G** nosymm int=superfine
 --------------------------------------------

 -------------------
 Title Card Required
 -------------------
 Symbolic Z-matrix:
 Charge = -1 Multiplicity = 2

 SCF Done:  E(UM062X) =  -50.5518845588     A.U. after   15 cycles
 SCF Done:  E(UM062X) =  -50.5570967060     A.U. after   14 cycles
 SCF Done:  E(UM062X) =  -50.5575251574     A.U. after   15 cycles
 Optimization completed.
    -- Stationary point found.

                          Input orientation:
 ---------------------------------------------------------------------
 Center     Atomic      Atomic             Coordinates (Angstroms)
 Number     Number       Type             X           Y           Z
 ---------------------------------------------------------------------
      1          5           0       -1.666404    0.000000    0.000000
      2          5           0        1.666404    0.000000    0.000000
      3          1           0       -2.946093   -0.000967   -0.000001
      4          1           0        2.946093    0.000967    0.000001
 ---------------------------------------------------------------------

 Alpha  occ. eigenvalues --   -6.90478  -6.90477  -0.33863  -0.33504  -0.10345
 Alpha  occ. eigenvalues --   -0.04330   0.02414
 Alpha virt. eigenvalues --    0.11870   0.12484   0.14591   0.15743   0.16383
 Alpha virt. eigenvalues --    0.22009   0.22166   0.22416   0.22742   0.23749
 Alpha virt. eigenvalues --    0.25879   0.34387   0.37891   0.52564   0.57986

  Beta  occ. eigenvalues --   -6.90401  -6.90400  -0.32807  -0.32594  -0.09164
  Beta  occ. eigenvalues --   -0.03351
  Beta virt. eigenvalues --    0.10352   0.11409   0.12857   0.13461   0.13519
  Beta virt. eigenvalues --    0.14057   0.19100   0.20328   0.20556   0.21418
  Beta virt. eigenvalues --    0.21854   0.22545   0.34097   0.37937   0.52179

 Mulliken charges and spin densities:
               1          2
     1  B   -0.402236   0.508913
     2  B   -0.402236   0.508913
     3  H   -0.097764  -0.008913
     4  H   -0.097764  -0.008913
 Sum of Mulliken charges =  -1.00000   1.00000

 Dipole moment (field-independent basis, Debye):
    X=             -0.0000    Y=              0.0000    Z=             -0.0000  Tot=              0.0000
 Quadrupole moment (field-independent basis, Debye-Ang):
   XX=            -37.8046   YY=            -19.2530   ZZ=            -26.8730
   XY=             -0.0016   XZ=             -0.0000   YZ=              0.0066

 Normal termination of Gaussian 16 at Mon Apr 21 17:30:23 2025.
