 Gaussian 16, Revision A.03,
 Gaussian 16:  ES64L-G16RevA.03 25-Dec-2016

 ---------------------------------------
 #p UM062X/6-311+G** force int=superfine
 ---------------------------------------

 -------------------
 Title Card Required
 -------------------
 Symbolic Z-matrix:
 Charge =  1 Multiplicity = 2

                         Standard orientation:
 ---------------------------------------------------------------------
 Center     Atomic      Atomic             Coordinates (Angstroms)
 Number     Number       Type             X           Y           Z
 ---------------------------------------------------------------------
      1          6           0        0.000000    0.000000    0.782892
      2          6           0        0.000000    0.000000   -0.782892
      3          1           0        0.000000    0.000000    1.874526
      4          1           0        0.000000    0.000000   -1.874521
 ---------------------------------------------------------------------

 SCF Done:  E(UM062X) =  -76.7962788987     A.U. after   10 cycles

 Unable to determine electronic state:  an orbital has unidentified symmetry.
 Alpha  occ. eigenvalues --  -10.98812 -10.98762  -1.12869  -0.98779  -0.86103
 Alpha  occ. eigenvalues --   -0.65614  -0.63394
 Alpha virt. eigenvalues --   -0.34369  -0.32362  -0.23215  -0.14272  -0.10867
 Alpha virt. eigenvalues --   -0.10567  -0.09363  -0.09121  -0.05243  -0.04904
 Alpha virt. eigenvalues --    0.01788   0.04082   0.09223   0.21593   0.31367

  Beta  occ. eigenvalues --  -10.98570 -10.98534  -1.08744  -0.97067  -0.85386
  Beta  occ. eigenvalues --   -0.61282
  Beta virt. eigenvalues --   -0.42015  -0.30656  -0.26593  -0.21129  -0.15372
  Beta virt. eigenvalues --   -0.11225  -0.10798  -0.09719  -0.09522  -0.05085
  Beta virt. eigenvalues --   -0.04725   0.01046   0.04204   0.09673   0.22453

 Mulliken charges and spin densities:
               1          2
     1  C    0.149130   0.520990
     2  C    0.149129   0.520990
     3  H    0.350871  -0.020990
     4  H    0.350869  -0.020990
 Sum of Mulliken charges =   1.00000   1.00000

 Dipole moment (field-independent basis, Debye):
    X=              0.0000    Y=              0.0000    Z=              0.0000  Tot=              0.0000
 Quadrupole moment (field-independent basis, Debye-Ang):
   XX=            -12.4436   YY=            -10.4208   ZZ=              2.0261
   XY=              0.0000   XZ=              0.0000   YZ=              0.0000

 Normal termination of Gaussian 16 at Tue Nov 19 13:35:27 2024.
