 Gaussian 16, Revision A.03,
 Gaussian 16:  ES64L-G16RevA.03 25-Dec-2016

 --------------------------------------------
 #p opt UM062X/6-311+G** nosymm int=superfine
 --------------------------------------------

 -------------------
 Title Card Required
 -------------------
 Symbolic Z-matrix:
 Charge =  0 Multiplicity = 1

 SCF Done:  E(UM062X) =  -83.1195987128     A.U. after   10 cycles
 SCF Done:  E(UM062X) =  -83.1356901897     A.U. after    9 cycles
 SCF Done:  E(UM062X) =  -83.1394679348     A.U. after    8 cycles
 SCF Done:  E(UM062X) =  -83.1394985212     A.U. after    7 cycles
 Optimization completed.
    -- Stationary point found.

                          Input orientation:
 ---------------------------------------------------------------------
 Center     Atomic      Atomic             Coordinates (Angstroms)
 Number     Number       Type             X           Y           Z
 ---------------------------------------------------------------------
      1          5           0       -2.227429    0.000000    0.000000
      2          7           0        2.227429    0.000000    0.000000
      3          1           0        2.592007   -0.945073    0.000002
      4          1           0       -2.235133   -0.593880    1.028597
      5          1           0        2.591906    0.472584   -0.818478
      6          1           0        2.591893    0.472583    0.818485
      7          1           0       -2.235184    1.187727    0.000014
      8          1           0       -2.235150   -0.593859   -1.028608
 ---------------------------------------------------------------------

 Alpha  occ. eigenvalues --  -14.72651  -7.04575  -0.95957  -0.57851  -0.53789
 Alpha  occ. eigenvalues --   -0.53788  -0.40248  -0.40248  -0.33984
 Alpha virt. eigenvalues --   -0.02539   0.02716   0.04720   0.04720   0.04778
 Alpha virt. eigenvalues --    0.08556   0.10538   0.10538   0.16457   0.18086
 Alpha virt. eigenvalues --    0.18086   0.18869   0.18869   0.21521   0.27470

  Beta  occ. eigenvalues --  -14.72651  -7.04575  -0.95957  -0.57851  -0.53789
  Beta  occ. eigenvalues --   -0.53788  -0.40248  -0.40248  -0.33984
  Beta virt. eigenvalues --   -0.02539   0.02716   0.04720   0.04720   0.04778
  Beta virt. eigenvalues --    0.08556   0.10538   0.10538   0.16457   0.18086
  Beta virt. eigenvalues --    0.18086   0.18869   0.18869   0.21521   0.27470

 Mulliken charges and spin densities:
               1          2
     1  B    0.025542   0.000000
     2  N   -0.731063  -0.000000
     3  H    0.244109  -0.000000
     4  H   -0.008933  -0.000000
     5  H    0.244110  -0.000000
     6  H    0.244110   0.000000
     7  H   -0.008943  -0.000000
     8  H   -0.008933   0.000000
 Sum of Mulliken charges =  -0.00000   0.00000

 Dipole moment (field-independent basis, Debye):
    X=              1.8625    Y=              0.0001    Z=              0.0000  Tot=              1.8625
 Quadrupole moment (field-independent basis, Debye-Ang):
   XX=             -8.9392   YY=            -15.6125   ZZ=            -15.6125
   XY=              0.0002   XZ=             -0.0000   YZ=              0.0000

 Normal termination of Gaussian 16 at Mon Apr 21 17:40:56 2025.
