 Gaussian 16, Revision A.03,
 Gaussian 16:  ES64L-G16RevA.03 25-Dec-2016

 ---------------------------------------
 #p UM062X/6-311+G** force int=superfine
 ---------------------------------------

 -------------------
 Title Card Required
 -------------------
 Symbolic Z-matrix:
 Charge =  0 Multiplicity = 1

                         Standard orientation:
 ---------------------------------------------------------------------
 Center     Atomic      Atomic             Coordinates (Angstroms)
 Number     Number       Type             X           Y           Z
 ---------------------------------------------------------------------
      1          6           0        1.046620    0.028544    0.174092
      2          6           0       -1.046620   -0.028544   -0.174092
      3          1           0       -1.177398    0.493956   -1.114703
      4          1           0        1.475524   -0.484049   -0.679222
      5          1           0       -1.475525    0.484048    0.679222
      6          1           0       -1.283316   -1.085324   -0.219264
      7          1           0        1.177398   -0.493956    1.114703
      8          1           0        1.283319    1.085324    0.219264
 ---------------------------------------------------------------------

 SCF Done:  E(UM062X) =  -79.7259128439     A.U. after    8 cycles

 The electronic state is 1-A.
 Alpha  occ. eigenvalues --  -10.54888 -10.54880  -0.78514  -0.73005  -0.48317
 Alpha  occ. eigenvalues --   -0.48317  -0.44903  -0.44902  -0.31851
 Alpha virt. eigenvalues --    0.01831   0.02379   0.05618   0.05618   0.08431
 Alpha virt. eigenvalues --    0.08431   0.09569   0.09646   0.13465   0.18184
 Alpha virt. eigenvalues --    0.18185   0.22088   0.22088   0.24336   0.26793

  Beta  occ. eigenvalues --  -10.54888 -10.54880  -0.78514  -0.73005  -0.48317
  Beta  occ. eigenvalues --   -0.48317  -0.44903  -0.44902  -0.31851
  Beta virt. eigenvalues --    0.01831   0.02379   0.05618   0.05618   0.08431
  Beta virt. eigenvalues --    0.08431   0.09569   0.09646   0.13465   0.18184
  Beta virt. eigenvalues --    0.18185   0.22088   0.22088   0.24336   0.26793

 Mulliken charges and spin densities:
               1          2
     1  C   -0.501201  -0.000000
     2  C   -0.501202   0.000000
     3  H    0.167067   0.000000
     4  H    0.167067   0.000000
     5  H    0.167068  -0.000000
     6  H    0.167067  -0.000000
     7  H    0.167067   0.000000
     8  H    0.167067   0.000000
 Sum of Mulliken charges =  -0.00000  -0.00000

 Dipole moment (field-independent basis, Debye):
    X=              0.0000    Y=             -0.0000    Z=             -0.0000  Tot=              0.0000
 Quadrupole moment (field-independent basis, Debye-Ang):
   XX=            -15.5476   YY=            -14.8574   ZZ=            -14.8760
   XY=             -0.0187   XZ=             -0.1149   YZ=             -0.0031

 Normal termination of Gaussian 16 at Tue Nov 19 12:52:34 2024.
