 Gaussian 16, Revision A.03,
 Gaussian 16:  ES64L-G16RevA.03 25-Dec-2016

 ---------------------------------------------------
 #p UM062X/6-311+G** force int=superfine pop=saveNBO
 ---------------------------------------------------

 -------------------
 Title Card Required
 -------------------
 Symbolic Z-matrix:
 Charge =  0 Multiplicity = 1

                         Standard orientation:
 ---------------------------------------------------------------------
 Center     Atomic      Atomic             Coordinates (Angstroms)
 Number     Number       Type             X           Y           Z
 ---------------------------------------------------------------------
      1          6           0        0.000000    0.000000   -2.893521
      2         16           0        0.000000    0.000000    1.085071
 ---------------------------------------------------------------------

 SCF Done:  E(UM062X) =  -435.822377169     A.U. after   28 cycles

 The electronic state is 1-SG.
 Alpha  occ. eigenvalues --  -89.93987 -10.73253  -8.30034  -6.22794  -6.21261
 Alpha  occ. eigenvalues --   -6.21261  -0.74322  -0.66134  -0.31669  -0.31669
 Alpha  occ. eigenvalues --   -0.30336
 Alpha virt. eigenvalues --   -0.16968  -0.12592  -0.12592   0.03484   0.04824
 Alpha virt. eigenvalues --    0.05845   0.05845   0.08568   0.08568   0.08749
 Alpha virt. eigenvalues --    0.13478   0.34228   0.36357   0.36357   0.55659

  Beta  occ. eigenvalues --  -89.93987 -10.73253  -8.30034  -6.22794  -6.21261
  Beta  occ. eigenvalues --   -6.21261  -0.74322  -0.66134  -0.31669  -0.31669
  Beta  occ. eigenvalues --   -0.30336
  Beta virt. eigenvalues --   -0.16968  -0.12592  -0.12592   0.03484   0.04824
  Beta virt. eigenvalues --    0.05845   0.05845   0.08568   0.08568   0.08749
  Beta virt. eigenvalues --    0.13478   0.34228   0.36357   0.36357   0.55659

 Mulliken charges and spin densities:
               1          2
     1  C    0.075660  -0.000000
     2  S   -0.075660   0.000000
 Sum of Mulliken charges =   0.00000   0.00000

 Dipole moment (field-independent basis, Debye):
    X=              0.0000    Y=              0.0000    Z=             -1.5559  Tot=              1.5559
 Quadrupole moment (field-independent basis, Debye-Ang):
   XX=            -20.5054   YY=            -20.5054   ZZ=            -15.8914
   XY=              0.0000   XZ=              0.0000   YZ=              0.0000

 Summary of Natural Population Analysis:

                                       Natural Population
                Natural  -----------------------------------------------
    Atom  No    Charge         Core      Valence    Rydberg      Total
 -----------------------------------------------------------------------
      C    1    0.04549      1.00000     1.95410    0.00041     2.95451
      S    2   -0.04549      4.99999     3.04498    0.00053     8.04549
 =======================================================================
   * Total *   -0.00000      5.99999     4.99908    0.00093    11.00000

 Normal termination of Gaussian 16 at Mon Apr 21 19:47:02 2025.
