 Gaussian 16, Revision A.03,
 Gaussian 16:  ES64L-G16RevA.03 25-Dec-2016

 --------------------------------------------
 #p opt UM062X/6-311+G** nosymm int=superfine
 --------------------------------------------

 -------------------
 Title Card Required
 -------------------
 Symbolic Z-matrix:
 Charge =  1 Multiplicity = 2

 SCF Done:  E(UM062X) =  -79.2841467309     A.U. after   12 cycles
 SCF Done:  E(UM062X) =  -79.3190872331     A.U. after   13 cycles
 SCF Done:  E(UM062X) =  -79.3273524761     A.U. after   13 cycles
 SCF Done:  E(UM062X) =  -79.3324483684     A.U. after   19 cycles
 SCF Done:  E(UM062X) =  -79.3532005527     A.U. after   14 cycles
 SCF Done:  E(UM062X) =  -79.3584735321     A.U. after   13 cycles
 SCF Done:  E(UM062X) =  -79.3621601486     A.U. after   14 cycles
 SCF Done:  E(UM062X) =  -79.3629005687     A.U. after   12 cycles
 SCF Done:  E(UM062X) =  -79.3630664281     A.U. after   12 cycles
 SCF Done:  E(UM062X) =  -79.3632020149     A.U. after   12 cycles
 SCF Done:  E(UM062X) =  -79.3672582066     A.U. after   12 cycles
 SCF Done:  E(UM062X) =  -79.3661277836     A.U. after   12 cycles
 SCF Done:  E(UM062X) =  -79.3689423121     A.U. after   13 cycles
 SCF Done:  E(UM062X) =  -79.3695911971     A.U. after   12 cycles
 SCF Done:  E(UM062X) =  -79.3704112196     A.U. after   12 cycles
 SCF Done:  E(UM062X) =  -79.3705831288     A.U. after   11 cycles
 SCF Done:  E(UM062X) =  -79.3706557074     A.U. after   11 cycles
 SCF Done:  E(UM062X) =  -79.3706949605     A.U. after   10 cycles
 SCF Done:  E(UM062X) =  -79.3707165445     A.U. after   10 cycles
 SCF Done:  E(UM062X) =  -79.3707221891     A.U. after    9 cycles
 Optimization completed.
    -- Stationary point found.

                          Input orientation:
 ---------------------------------------------------------------------
 Center     Atomic      Atomic             Coordinates (Angstroms)
 Number     Number       Type             X           Y           Z
 ---------------------------------------------------------------------
      1          6           0       -0.741869    0.000000    0.000000
      2          6           0        0.741869    0.000000    0.000000
      3          1           0        1.247440   -0.909027    0.319022
      4          1           0       -1.247712   -0.924823   -0.270024
      5          1           0        1.247958    0.924528    0.270805
      6          1           0        0.694586   -0.028972   -1.164361
      7          1           0       -1.247684    0.908661   -0.319901
      8          1           0       -0.694818    0.031881    1.164317
 ---------------------------------------------------------------------

 Alpha  occ. eigenvalues --  -10.84447 -10.84400  -1.18511  -0.98782  -0.82753
 Alpha  occ. eigenvalues --   -0.80926  -0.75637  -0.70083  -0.65172
 Alpha virt. eigenvalues --   -0.17384  -0.12570  -0.12349  -0.11899  -0.10931
 Alpha virt. eigenvalues --   -0.07761  -0.06457  -0.05698  -0.05120  -0.02151
 Alpha virt. eigenvalues --   -0.00472   0.01697   0.03615   0.04415   0.05360

  Beta  occ. eigenvalues --  -10.84251 -10.84204  -1.15725  -0.95890  -0.80160
  Beta  occ. eigenvalues --   -0.77024  -0.74249  -0.69498
  Beta virt. eigenvalues --   -0.43275  -0.17205  -0.12795  -0.11820  -0.11749
  Beta virt. eigenvalues --   -0.10507  -0.07796  -0.06482  -0.05404  -0.03374
  Beta virt. eigenvalues --   -0.01895  -0.00013   0.02040   0.04351   0.05230

 Mulliken charges and spin densities:
               1          2
     1  C   -0.385123   0.288540
     2  C   -0.385013   0.288626
     3  H    0.279850  -0.007294
     4  H    0.279973  -0.007181
     5  H    0.280011  -0.007059
     6  H    0.325202   0.225747
     7  H    0.279887  -0.007157
     8  H    0.325213   0.225778
 Sum of Mulliken charges =   1.00000   1.00000

 Dipole moment (field-independent basis, Debye):
    X=             -0.0001    Y=              0.0029    Z=             -0.0001  Tot=              0.0029
 Quadrupole moment (field-independent basis, Debye-Ang):
   XX=             -8.2332   YY=            -10.9226   ZZ=             -9.6869
   XY=             -0.0161   XZ=             -0.6909   YZ=              0.0304

 Normal termination of Gaussian 16 at Sat Nov 16 15:56:38 2024.
