 Gaussian 16, Revision A.03,
 Gaussian 16:  ES64L-G16RevA.03 25-Dec-2016

 --------------------------------------------
 #p opt UM062X/6-311+G** nosymm int=superfine
 --------------------------------------------

 -------------------
 Title Card Required
 -------------------
 Symbolic Z-matrix:
 Charge =  0 Multiplicity = 1

 SCF Done:  E(UM062X) =  -437.417297759     A.U. after   11 cycles
 SCF Done:  E(UM062X) =  -437.417733545     A.U. after    9 cycles
 SCF Done:  E(UM062X) =  -437.417743655     A.U. after   10 cycles
 SCF Done:  E(UM062X) =  -437.414749586     A.U. after   11 cycles
 SCF Done:  E(UM062X) =  -437.417811805     A.U. after   10 cycles
 Optimization completed.
    -- Stationary point found.

                          Input orientation:
 ---------------------------------------------------------------------
 Center     Atomic      Atomic             Coordinates (Angstroms)
 Number     Number       Type             X           Y           Z
 ---------------------------------------------------------------------
      1          6           0       -0.902140    0.000000    0.000000
      2         16           0        0.902140    0.000000    0.000000
      3          1           0       -1.436510   -0.943321    0.000102
      4          1           0       -1.437692    0.942647   -0.001979
 ---------------------------------------------------------------------

 Alpha  occ. eigenvalues --  -89.91200 -10.64102  -8.27328  -6.19375  -6.19344
 Alpha  occ. eigenvalues --   -6.18732  -0.85708  -0.70109  -0.54478  -0.44130
 Alpha  occ. eigenvalues --   -0.35156  -0.29856
 Alpha virt. eigenvalues --   -0.08790   0.01283   0.04421   0.05001   0.05860
 Alpha virt. eigenvalues --    0.08180   0.08700   0.10042   0.11516   0.15222
 Alpha virt. eigenvalues --    0.17449   0.20819   0.35724   0.36286   0.36652

  Beta  occ. eigenvalues --  -89.91200 -10.64102  -8.27328  -6.19375  -6.19344
  Beta  occ. eigenvalues --   -6.18732  -0.85708  -0.70109  -0.54478  -0.44130
  Beta  occ. eigenvalues --   -0.35156  -0.29856
  Beta virt. eigenvalues --   -0.08790   0.01283   0.04421   0.05001   0.05860
  Beta virt. eigenvalues --    0.08180   0.08700   0.10042   0.11516   0.15222
  Beta virt. eigenvalues --    0.17449   0.20819   0.35724   0.36286   0.36652

 Mulliken charges and spin densities:
               1          2
     1  C   -0.361917   0.000000
     2  S   -0.038378  -0.000000
     3  H    0.200150  -0.000000
     4  H    0.200145   0.000000
 Sum of Mulliken charges =  -0.00000   0.00000

 Dipole moment (field-independent basis, Debye):
    X=             -2.1399    Y=             -0.0005    Z=             -0.0016  Tot=              2.1399
 Quadrupole moment (field-independent basis, Debye-Ang):
   XX=            -17.7645   YY=            -20.7532   ZZ=            -20.6095
   XY=             -0.0014   XZ=              0.0014   YZ=              0.0002

 Normal termination of Gaussian 16 at Mon Apr 21 19:40:32 2025.
