 Gaussian 16, Revision A.03,
 Gaussian 16:  ES64L-G16RevA.03 25-Dec-2016

 --------------------------------------------
 #p opt UM062X/6-311+G** nosymm int=superfine
 --------------------------------------------

 -------------------
 Title Card Required
 -------------------
 Symbolic Z-matrix:
 Charge =  1 Multiplicity = 2

 SCF Done:  E(UM062X) =  -78.1823099822     A.U. after    9 cycles
 SCF Done:  E(UM062X) =  -78.1827739871     A.U. after    8 cycles
 SCF Done:  E(UM062X) =  -78.1828048658     A.U. after    7 cycles
 Optimization completed.
    -- Stationary point found.

                          Input orientation:
 ---------------------------------------------------------------------
 Center     Atomic      Atomic             Coordinates (Angstroms)
 Number     Number       Type             X           Y           Z
 ---------------------------------------------------------------------
      1          6           0       -0.728099    0.000000    0.000000
      2          6           0        0.728099    0.000000    0.000000
      3          1           0       -1.274797   -0.938268   -0.000000
      4          1           0       -1.274966    0.938103   -0.000000
      5          1           0        1.274797    0.938268    0.000000
      6          1           0        1.274966   -0.938103    0.000000
 ---------------------------------------------------------------------

 Alpha  occ. eigenvalues --  -10.89902 -10.89837  -1.17190  -0.97953  -0.84257
 Alpha  occ. eigenvalues --   -0.78655  -0.73357  -0.65661
 Alpha virt. eigenvalues --   -0.30193  -0.14657  -0.12746  -0.12249  -0.09573
 Alpha virt. eigenvalues --   -0.07721  -0.06943  -0.04759  -0.04501  -0.02394
 Alpha virt. eigenvalues --   -0.00680   0.01270   0.05928   0.10622   0.20066

  Beta  occ. eigenvalues --  -10.89673 -10.89622  -1.13306  -0.96009  -0.83205
  Beta  occ. eigenvalues --   -0.77688  -0.73029
  Beta virt. eigenvalues --   -0.41458  -0.22953  -0.16409  -0.12655  -0.12424
  Beta virt. eigenvalues --   -0.10020  -0.08571  -0.07004  -0.04738  -0.03762
  Beta virt. eigenvalues --   -0.01879  -0.01035   0.01890   0.07264   0.11084

 Mulliken charges and spin densities:
               1          2
     1  C   -0.053642   0.537985
     2  C   -0.053642   0.537985
     3  H    0.276815  -0.018994
     4  H    0.276827  -0.018990
     5  H    0.276815  -0.018994
     6  H    0.276827  -0.018990
 Sum of Mulliken charges =   1.00000   1.00000

 Dipole moment (field-independent basis, Debye):
    X=              0.0000    Y=              0.0000    Z=             -0.0000  Tot=              0.0000
 Quadrupole moment (field-independent basis, Debye-Ang):
   XX=             -5.3444   YY=             -8.4543   ZZ=            -11.5847
   XY=             -0.0002   XZ=              0.0000   YZ=              0.0000

 Normal termination of Gaussian 16 at Tue Nov 19 11:01:11 2024.
