 Gaussian 16, Revision A.03,
 Gaussian 16:  ES64L-G16RevA.03 25-Dec-2016

 --------------------------------------------
 #p opt UM062X/6-311+G** nosymm int=superfine
 --------------------------------------------

 -------------------
 Title Card Required
 -------------------
 Symbolic Z-matrix:
 Charge =  0 Multiplicity = 1

 SCF Done:  E(UM062X) =  -95.5680605922     A.U. after   19 cycles
 SCF Done:  E(UM062X) =  -95.5826107981     A.U. after   13 cycles
 SCF Done:  E(UM062X) =  -95.5925050975     A.U. after   14 cycles
 SCF Done:  E(UM062X) =  -95.5928405953     A.U. after   12 cycles
 SCF Done:  E(UM062X) =  -95.5932346944     A.U. after   13 cycles
 SCF Done:  E(UM062X) =  -95.5936396693     A.U. after   14 cycles
 SCF Done:  E(UM062X) =  -95.5938026453     A.U. after   12 cycles
 SCF Done:  E(UM062X) =  -95.5938742912     A.U. after   12 cycles
 SCF Done:  E(UM062X) =  -95.5938828070     A.U. after   12 cycles
 SCF Done:  E(UM062X) =  -95.5938830761     A.U. after    9 cycles
 SCF Done:  E(UM062X) =  -95.5938836276     A.U. after   10 cycles
 SCF Done:  E(UM062X) =  -95.5938842035     A.U. after   11 cycles
 SCF Done:  E(UM062X) =  -95.5938847788     A.U. after   11 cycles
 SCF Done:  E(UM062X) =  -95.5938849866     A.U. after   11 cycles
 Optimization completed.
    -- Stationary point found.

                          Input orientation:
 ---------------------------------------------------------------------
 Center     Atomic      Atomic             Coordinates (Angstroms)
 Number     Number       Type             X           Y           Z
 ---------------------------------------------------------------------
      1          6           0       -2.155542    0.000000    0.000000
      2          7           0        2.155542    0.000000    0.000000
      3          1           0        2.102604   -1.014668    0.142213
      4          1           0       -2.120483    1.079825    0.015638
      5          1           0        2.103421    0.372387    0.954565
      6          1           0       -2.119599   -0.525879   -0.943215
      7          1           0       -2.277175   -0.550586    0.921900
 ---------------------------------------------------------------------

 Alpha  occ. eigenvalues --  -14.74639 -10.62164  -0.90128  -0.81240  -0.53412
 Alpha  occ. eigenvalues --   -0.53300  -0.50654  -0.35865  -0.23847
 Alpha virt. eigenvalues --   -0.15646   0.01742   0.04509   0.04764   0.06910
 Alpha virt. eigenvalues --    0.09952   0.12929   0.15742   0.16583   0.16703
 Alpha virt. eigenvalues --    0.17197   0.20344   0.21592   0.26973   0.40976

  Beta  occ. eigenvalues --  -14.74639 -10.62164  -0.90128  -0.81240  -0.53412
  Beta  occ. eigenvalues --   -0.53300  -0.50654  -0.35865  -0.23847
  Beta virt. eigenvalues --   -0.15646   0.01742   0.04509   0.04764   0.06910
  Beta virt. eigenvalues --    0.09952   0.12929   0.15742   0.16583   0.16703
  Beta virt. eigenvalues --    0.17197   0.20344   0.21592   0.26973   0.40976

 Mulliken charges and spin densities:
               1          2
     1  C   -0.418394   0.000000
     2  N   -0.580802  -0.000000
     3  H    0.209852   0.000000
     4  H    0.195806  -0.000000
     5  H    0.209858   0.000000
     6  H    0.195896  -0.000000
     7  H    0.187785  -0.000000
 Sum of Mulliken charges =  -0.00000   0.00000

 Dipole moment (field-independent basis, Debye):
    X=             -3.7397    Y=             -1.0067    Z=              1.7190  Tot=              4.2372
 Quadrupole moment (field-independent basis, Debye-Ang):
   XX=            -16.0485   YY=            -13.4599   ZZ=            -14.2775
   XY=             -2.1703   XZ=              3.7097   YZ=              0.7293

 Normal termination of Gaussian 16 at Mon Apr 21 18:16:47 2025.
