 Gaussian 16, Revision A.03,
 Gaussian 16:  ES64L-G16RevA.03 25-Dec-2016

 --------------------------------------------
 #p opt UM062X/6-311+G** nosymm int=superfine
 --------------------------------------------

 -------------------
 Title Card Required
 -------------------
 Symbolic Z-matrix:
 Charge =  0 Multiplicity = 1

 SCF Done:  E(UM062X) =  -683.568360646     A.U. after   11 cycles
 SCF Done:  E(UM062X) =  -683.568484251     A.U. after   10 cycles
 SCF Done:  E(UM062X) =  -683.568789384     A.U. after   12 cycles
 SCF Done:  E(UM062X) =  -683.568927984     A.U. after   16 cycles
 SCF Done:  E(UM062X) =  -683.568956395     A.U. after   13 cycles
 SCF Done:  E(UM062X) =  -683.568958741     A.U. after   15 cycles
 SCF Done:  E(UM062X) =  -683.568958925     A.U. after   12 cycles
 Optimization completed.
    -- Stationary point found.

                          Input orientation:
 ---------------------------------------------------------------------
 Center     Atomic      Atomic             Coordinates (Angstroms)
 Number     Number       Type             X           Y           Z
 ---------------------------------------------------------------------
      1         15           0       -2.434490    0.000000    0.000000
      2         15           0        2.434490    0.000000    0.000000
      3          1           0       -2.264268   -1.413706    0.000000
      4          1           0        2.264268    1.413706    0.000000
 ---------------------------------------------------------------------

 Alpha  occ. eigenvalues --  -78.08131 -78.08131  -6.90220  -6.90220  -5.01624
 Alpha  occ. eigenvalues --   -5.01624  -5.01609  -5.01609  -5.01438  -5.01438
 Alpha  occ. eigenvalues --   -0.68491  -0.68188  -0.40526  -0.40489  -0.24311
 Alpha  occ. eigenvalues --   -0.23523
 Alpha virt. eigenvalues --   -0.17581  -0.16663   0.01811   0.03014   0.03710
 Alpha virt. eigenvalues --    0.04383   0.05499   0.06024   0.06321   0.07304
 Alpha virt. eigenvalues --    0.08018   0.11167   0.28928   0.29040   0.30610

  Beta  occ. eigenvalues --  -78.08131 -78.08131  -6.90220  -6.90220  -5.01624
  Beta  occ. eigenvalues --   -5.01624  -5.01609  -5.01609  -5.01438  -5.01438
  Beta  occ. eigenvalues --   -0.68491  -0.68188  -0.40526  -0.40489  -0.24311
  Beta  occ. eigenvalues --   -0.23523
  Beta virt. eigenvalues --   -0.17581  -0.16663   0.01811   0.03014   0.03710
  Beta virt. eigenvalues --    0.04383   0.05499   0.06024   0.06321   0.07304
  Beta virt. eigenvalues --    0.08018   0.11167   0.28928   0.29040   0.30610

 Mulliken charges and spin densities:
               1          2
     1  P    0.013730   0.000000
     2  P    0.013730  -0.000000
     3  H   -0.013730  -0.000000
     4  H   -0.013730   0.000000
 Sum of Mulliken charges =  -0.00000  -0.00000

 Dipole moment (field-independent basis, Debye):
    X=             -0.0000    Y=              0.0000    Z=              0.0000  Tot=              0.0000
 Quadrupole moment (field-independent basis, Debye-Ang):
   XX=            -27.7223   YY=            -28.5203   ZZ=            -30.7076
   XY=              3.6018   XZ=             -0.0000   YZ=             -0.0000

 Normal termination of Gaussian 16 at Mon Apr 21 21:15:06 2025.
