 Gaussian 16, Revision A.03,
 Gaussian 16:  ES64L-G16RevA.03 25-Dec-2016

 --------------------------------------------
 #p opt UM062X/6-311+G** nosymm int=superfine
 --------------------------------------------

 -------------------
 Title Card Required
 -------------------
 Symbolic Z-matrix:
 Charge =  0 Multiplicity = 1

 SCF Done:  E(UM062X) =  -79.7567235628     A.U. after    8 cycles
 SCF Done:  E(UM062X) =  -79.7694253965     A.U. after    8 cycles
 SCF Done:  E(UM062X) =  -79.7712542834     A.U. after    8 cycles
 Optimization completed.
    -- Stationary point found.

                          Input orientation:
 ---------------------------------------------------------------------
 Center     Atomic      Atomic             Coordinates (Angstroms)
 Number     Number       Type             X           Y           Z
 ---------------------------------------------------------------------
      1          6           0       -0.908621    0.000000    0.000000
      2          6           0        0.908714    0.000000    0.000000
      3          1           0        1.240960   -0.895621    0.518238
      4          1           0       -1.240878   -0.896623   -0.516488
      5          1           0        1.240973    0.896624    0.516486
      6          1           0        1.240919   -0.001011   -1.034761
      7          1           0       -1.240866    0.895621   -0.518239
      8          1           0       -1.240829    0.001010    1.034760
 ---------------------------------------------------------------------

 Alpha  occ. eigenvalues --  -10.53718 -10.53703  -0.80742  -0.71608  -0.48840
 Alpha  occ. eigenvalues --   -0.48840  -0.42938  -0.42938  -0.36740
 Alpha virt. eigenvalues --    0.02258   0.03583   0.05632   0.05632   0.08610
 Alpha virt. eigenvalues --    0.08610   0.09241   0.13394   0.17548   0.18357
 Alpha virt. eigenvalues --    0.18358   0.21791   0.21791   0.24243   0.27474

  Beta  occ. eigenvalues --  -10.53718 -10.53703  -0.80742  -0.71608  -0.48840
  Beta  occ. eigenvalues --   -0.48840  -0.42938  -0.42938  -0.36740
  Beta virt. eigenvalues --    0.02258   0.03583   0.05632   0.05632   0.08610
  Beta virt. eigenvalues --    0.08610   0.09241   0.13394   0.17548   0.18357
  Beta virt. eigenvalues --    0.18358   0.21791   0.21791   0.24243   0.27474

 Mulliken charges and spin densities:
               1          2
     1  C   -0.489139   0.000000
     2  C   -0.489139  -0.000000
     3  H    0.163046   0.000000
     4  H    0.163047  -0.000000
     5  H    0.163047   0.000000
     6  H    0.163046   0.000000
     7  H    0.163046  -0.000000
     8  H    0.163045  -0.000000
 Sum of Mulliken charges =  -0.00000   0.00000

 Dipole moment (field-independent basis, Debye):
    X=             -0.0000    Y=             -0.0000    Z=             -0.0000  Tot=              0.0000
 Quadrupole moment (field-independent basis, Debye-Ang):
   XX=            -15.6009   YY=            -14.9270   ZZ=            -14.9270
   XY=              0.0000   XZ=              0.0001   YZ=             -0.0000

 Normal termination of Gaussian 16 at Tue Nov 19 12:00:20 2024.
