 Gaussian 16, Revision A.03,
 Gaussian 16:  ES64L-G16RevA.03 25-Dec-2016

 --------------------------------------------
 #p opt UM062X/6-311+G** nosymm int=superfine
 --------------------------------------------

 -------------------
 Title Card Required
 -------------------
 Symbolic Z-matrix:
 Charge =  0 Multiplicity = 1

 SCF Done:  E(UM062X) =  -115.439901494     A.U. after   38 cycles
 SCF Done:  E(UM062X) =  -115.456195088     A.U. after   12 cycles
 SCF Done:  E(UM062X) =  -115.466320874     A.U. after   14 cycles
 SCF Done:  E(UM062X) =  -115.466446227     A.U. after   12 cycles
 SCF Done:  E(UM062X) =  -115.466502287     A.U. after   14 cycles
 SCF Done:  E(UM062X) =  -115.466643497     A.U. after   16 cycles
 SCF Done:  E(UM062X) =  -115.466675072     A.U. after   15 cycles
 SCF Done:  E(UM062X) =  -115.466682953     A.U. after   10 cycles
 SCF Done:  E(UM062X) =  -115.466683219     A.U. after   10 cycles
 Optimization completed.
    -- Stationary point found.

                          Input orientation:
 ---------------------------------------------------------------------
 Center     Atomic      Atomic             Coordinates (Angstroms)
 Number     Number       Type             X           Y           Z
 ---------------------------------------------------------------------
      1          6           0       -1.907203    0.000000    0.000000
      2          8           0        1.907203    0.000000    0.000000
      3          1           0        1.968563   -0.963850    0.000606
      4          1           0       -1.972838   -0.534596    0.937840
      5          1           0       -1.803341    1.076576   -0.000649
      6          1           0       -1.972747   -0.535730   -0.937199
 ---------------------------------------------------------------------

 Alpha  occ. eigenvalues --  -19.58299 -10.67230  -1.00754  -0.85134  -0.57223
 Alpha  occ. eigenvalues --   -0.57046  -0.45289  -0.32249  -0.27312
 Alpha virt. eigenvalues --   -0.17705   0.00293   0.03591   0.03828   0.06872
 Alpha virt. eigenvalues --    0.13131   0.14528   0.14685   0.18908   0.22677
 Alpha virt. eigenvalues --    0.23068   0.24978   0.28265   0.38885   0.39079

  Beta  occ. eigenvalues --  -19.58299 -10.67230  -1.00754  -0.85134  -0.57223
  Beta  occ. eigenvalues --   -0.57046  -0.45289  -0.32249  -0.27312
  Beta virt. eigenvalues --   -0.17705   0.00293   0.03591   0.03828   0.06872
  Beta virt. eigenvalues --    0.13131   0.14528   0.14685   0.18908   0.22677
  Beta virt. eigenvalues --    0.23068   0.24978   0.28265   0.38885   0.39079

 Mulliken charges and spin densities:
               1          2
     1  C   -0.291933  -0.000000
     2  O   -0.562470   0.000000
     3  H    0.212859   0.000000
     4  H    0.210173   0.000000
     5  H    0.221196   0.000000
     6  H    0.210175  -0.000000
 Sum of Mulliken charges =  -0.00000   0.00000

 Dipole moment (field-independent basis, Debye):
    X=             -6.4795    Y=             -1.5866    Z=              0.0010  Tot=              6.6709
 Quadrupole moment (field-independent basis, Debye-Ang):
   XX=            -13.1638   YY=            -11.5045   ZZ=            -13.9198
   XY=             -3.2096   XZ=              0.0019   YZ=             -0.0015

 Normal termination of Gaussian 16 at Mon Apr 21 18:46:10 2025.
