 Gaussian 16, Revision A.03,
 Gaussian 16:  ES64L-G16RevA.03 25-Dec-2016

 --------------------------------------------
 #p opt UM062X/6-311+G** nosymm int=superfine
 --------------------------------------------

 -------------------
 Title Card Required
 -------------------
 Symbolic Z-matrix:
 Charge =  0 Multiplicity = 1

 SCF Done:  E(UM062X) =  -76.9801274954     A.U. after   10 cycles
 SCF Done:  E(UM062X) =  -77.0248942798     A.U. after    9 cycles
 SCF Done:  E(UM062X) =  -77.0939645069     A.U. after   10 cycles
 SCF Done:  E(UM062X) =  -77.1012775102     A.U. after    9 cycles
 SCF Done:  E(UM062X) =  -77.1013120135     A.U. after    8 cycles
 Optimization completed.
    -- Stationary point found.

                          Input orientation:
 ---------------------------------------------------------------------
 Center     Atomic      Atomic             Coordinates (Angstroms)
 Number     Number       Type             X           Y           Z
 ---------------------------------------------------------------------
      1          6           0       -0.837922    0.000000    0.000000
      2          6           0        0.837922    0.000000    0.000000
      3          1           0       -1.913692    0.000014   -0.000014
      4          1           0        1.913648    0.000012   -0.000012
 ---------------------------------------------------------------------

 Alpha  occ. eigenvalues --  -10.65563 -10.65530  -0.77900  -0.69543  -0.53311
 Alpha  occ. eigenvalues --   -0.30381  -0.30381
 Alpha virt. eigenvalues --   -0.04255  -0.04255   0.00155   0.02315   0.06173
 Alpha virt. eigenvalues --    0.08397   0.08397   0.09533   0.11123   0.11123
 Alpha virt. eigenvalues --    0.17663   0.22631   0.27845   0.46726   0.58570

  Beta  occ. eigenvalues --  -10.65563 -10.65530  -0.77900  -0.69543  -0.53311
  Beta  occ. eigenvalues --   -0.30381  -0.30381
  Beta virt. eigenvalues --   -0.04255  -0.04255   0.00155   0.02315   0.06173
  Beta virt. eigenvalues --    0.08397   0.08397   0.09533   0.11123   0.11123
  Beta virt. eigenvalues --    0.17663   0.22631   0.27845   0.46726   0.58570

 Mulliken charges and spin densities:
               1          2
     1  C   -0.244198  -0.000000
     2  C   -0.244200   0.000000
     3  H    0.244205  -0.000000
     4  H    0.244193   0.000000
 Sum of Mulliken charges =  -0.00000  -0.00000

 Dipole moment (field-independent basis, Debye):
    X=             -0.0001    Y=              0.0000    Z=             -0.0000  Tot=              0.0001
 Quadrupole moment (field-independent basis, Debye-Ang):
   XX=             -5.0631   YY=            -15.7103   ZZ=            -15.7103
   XY=             -0.0000   XZ=              0.0000   YZ=             -0.0000

 Normal termination of Gaussian 16 at Tue Dec  3 20:14:07 2024.
