 Gaussian 16, Revision A.03,
 Gaussian 16:  ES64L-G16RevA.03 25-Dec-2016

 ---------------------------------------
 #p UM062X/6-311+G** force int=superfine
 ---------------------------------------

 -------------------
 Title Card Required
 -------------------
 Symbolic Z-matrix:
 Charge =  1 Multiplicity = 2

                         Standard orientation:
 ---------------------------------------------------------------------
 Center     Atomic      Atomic             Coordinates (Angstroms)
 Number     Number       Type             X           Y           Z
 ---------------------------------------------------------------------
      1          6           0        0.000000    0.000000    0.416299
      2          6           0        0.000000    0.000000   -0.416299
      3          1           0        0.000000    0.000000    1.483542
      4          1           0        0.000000    0.000000   -1.483542
 ---------------------------------------------------------------------

 SCF Done:  E(UM062X) =  -76.2163714417     A.U. after   11 cycles

 Unable to determine electronic state:  an orbital has unidentified symmetry.
 Alpha  occ. eigenvalues --  -10.93486 -10.87614  -1.34019  -0.93801  -0.92021
 Alpha  occ. eigenvalues --   -0.90381  -0.86273
 Alpha virt. eigenvalues --   -0.15016  -0.14969  -0.13695  -0.13343  -0.12184
 Alpha virt. eigenvalues --   -0.11868  -0.11808  -0.01705  -0.00682  -0.00662
 Alpha virt. eigenvalues --    0.02666   0.03711   0.17001   0.23083   0.23202

  Beta  occ. eigenvalues --  -10.92943 -10.87246  -1.27081  -0.92293  -0.90948
  Beta  occ. eigenvalues --   -0.83504
  Beta virt. eigenvalues --   -0.57111  -0.15450  -0.13039  -0.13038  -0.12586
  Beta virt. eigenvalues --   -0.12236  -0.11840  -0.11755  -0.00370  -0.00055
  Beta virt. eigenvalues --    0.01060   0.03160   0.04254   0.17357   0.21879

 Mulliken charges and spin densities:
               1          2
     1  C    0.262551   0.524052
     2  C    0.262551   0.524052
     3  H    0.237449  -0.024052
     4  H    0.237449  -0.024052
 Sum of Mulliken charges =   1.00000   1.00000

 Dipole moment (field-independent basis, Debye):
    X=              0.0000    Y=             -0.0000    Z=             -0.0000  Tot=              0.0000
 Quadrupole moment (field-independent basis, Debye-Ang):
   XX=             -8.3279   YY=             -9.6875   ZZ=             -2.8641
   XY=             -0.0000   XZ=             -0.0000   YZ=              0.0000

 Normal termination of Gaussian 16 at Tue Nov 19 13:24:39 2024.
