 Gaussian 16, Revision A.03,
 Gaussian 16:  ES64L-G16RevA.03 25-Dec-2016

 --------------------------------
 #p UM062X/6-311+G** Pop=NBO Read
 --------------------------------

 ------------
 NBO Analysis
 ------------
 Symbolic Z-matrix:
 Charge =  0 Multiplicity = 1

                         Standard orientation:
 ---------------------------------------------------------------------
 Center     Atomic      Atomic             Coordinates (Angstroms)
 Number     Number       Type             X           Y           Z
 ---------------------------------------------------------------------
      1         16           0        0.000000    0.000000    0.950200
      2         16           0        0.000000    0.000000   -0.950200
 ---------------------------------------------------------------------

 SCF Done:  E(UM062X) =  -796.249145270     A.U. after    8 cycles

 Unable to determine electronic state:  partially filled degenerate orbitals.
 Alpha  occ. eigenvalues --  -89.98174 -89.98173  -8.32696  -8.32673  -6.24715
 Alpha  occ. eigenvalues --   -6.24710  -6.24634  -6.24567  -6.23819  -6.23815
 Alpha  occ. eigenvalues --   -0.92935  -0.68797  -0.45093  -0.41826  -0.41598
 Alpha  occ. eigenvalues --   -0.26997
 Alpha virt. eigenvalues --   -0.14457   0.01156   0.03034   0.05547   0.06507
 Alpha virt. eigenvalues --    0.07249   0.08982   0.09211   0.09883   0.14874
 Alpha virt. eigenvalues --    0.39314   0.48566   0.50345   0.51697   0.52592

  Beta  occ. eigenvalues --  -89.98174 -89.98173  -8.32696  -8.32673  -6.24715
  Beta  occ. eigenvalues --   -6.24710  -6.24634  -6.24567  -6.23819  -6.23815
  Beta  occ. eigenvalues --   -0.92935  -0.68797  -0.45093  -0.41826  -0.41598
  Beta  occ. eigenvalues --   -0.26997
  Beta virt. eigenvalues --   -0.14457   0.01156   0.03034   0.05547   0.06507
  Beta virt. eigenvalues --    0.07249   0.08982   0.09211   0.09883   0.14874
  Beta virt. eigenvalues --    0.39314   0.48566   0.50345   0.51697   0.52592

 Mulliken charges and spin densities:
               1          2
     1  S   -0.000000  -0.000000
     2  S   -0.000000  -0.000000
 Sum of Mulliken charges =  -0.00000  -0.00000

 Dipole moment (field-independent basis, Debye):
    X=             -0.0000    Y=             -0.0000    Z=              0.0000  Tot=              0.0000
 Quadrupole moment (field-independent basis, Debye-Ang):
   XX=            -23.5753   YY=            -28.7878   ZZ=            -25.1658
   XY=              0.0000   XZ=              0.0000   YZ=              0.0000

 Summary of Natural Population Analysis:

                                       Natural Population
                Natural  -----------------------------------------------
    Atom  No    Charge         Core      Valence    Rydberg      Total
 -----------------------------------------------------------------------
      S    1   -0.00000      4.99979     2.97482    0.02539     8.00000
      S    2   -0.00000      4.99979     2.97482    0.02539     8.00000
 =======================================================================
   * Total *   -0.00000      9.99958     5.94964    0.05078    16.00000

 Normal termination of Gaussian 16 at Wed Apr 16 06:23:44 2025.
