 Gaussian 16, Revision A.03,
 Gaussian 16:  ES64L-G16RevA.03 25-Dec-2016

 --------------------------------------------
 #p opt UM062X/6-311+G** nosymm int=superfine
 --------------------------------------------

 -------------------
 Title Card Required
 -------------------
 Symbolic Z-matrix:
 Charge =  0 Multiplicity = 1

 SCF Done:  E(UM062X) =  -93.3946608385     A.U. after    9 cycles
 SCF Done:  E(UM062X) =  -93.3946703019     A.U. after    7 cycles
 Optimization completed.
    -- Stationary point found.

                          Input orientation:
 ---------------------------------------------------------------------
 Center     Atomic      Atomic             Coordinates (Angstroms)
 Number     Number       Type             X           Y           Z
 ---------------------------------------------------------------------
      1          6           0       -0.622395    0.000000    0.000000
      2          7           0        0.622395    0.000000    0.000000
      3          1           0       -1.693953   -0.000000    0.000000
 ---------------------------------------------------------------------

 Alpha  occ. eigenvalues --  -14.80825 -10.62472  -1.00222  -0.69885  -0.47353
 Alpha  occ. eigenvalues --   -0.41465  -0.41465
 Alpha virt. eigenvalues --    0.00986   0.00986   0.01726   0.03625   0.07510
 Alpha virt. eigenvalues --    0.07510   0.13088   0.18405   0.18937   0.18937
 Alpha virt. eigenvalues --    0.25715   0.39249   0.55976   0.55976   0.61198

  Beta  occ. eigenvalues --  -14.80825 -10.62472  -1.00222  -0.69885  -0.47353
  Beta  occ. eigenvalues --   -0.41465  -0.41465
  Beta virt. eigenvalues --    0.00986   0.00986   0.01726   0.03625   0.07510
  Beta virt. eigenvalues --    0.07510   0.13088   0.18405   0.18937   0.18937
  Beta virt. eigenvalues --    0.25715   0.39249   0.55976   0.55976   0.61198

 Mulliken charges and spin densities:
               1          2
     1  C   -0.032885  -0.000000
     2  N   -0.185329   0.000000
     3  H    0.218215   0.000000
 Sum of Mulliken charges =  -0.00000  -0.00000

 Dipole moment (field-independent basis, Debye):
    X=             -3.0866    Y=             -0.0000    Z=              0.0000  Tot=              3.0866
 Quadrupole moment (field-independent basis, Debye-Ang):
   XX=             -9.1922   YY=            -12.2091   ZZ=            -12.2091
   XY=              0.0000   XZ=             -0.0000   YZ=             -0.0000

 Normal termination of Gaussian 16 at Mon Apr 21 18:37:24 2025.
