 Gaussian 16, Revision A.03,
 Gaussian 16:  ES64L-G16RevA.03 25-Dec-2016

 ---------------------------------------------------
 #p UM062X/6-311+G** force int=superfine pop=saveNBO
 ---------------------------------------------------

 -------------------
 Title Card Required
 -------------------
 Symbolic Z-matrix:
 Charge =  0 Multiplicity = 1

                         Standard orientation:
 ---------------------------------------------------------------------
 Center     Atomic      Atomic             Coordinates (Angstroms)
 Number     Number       Type             X           Y           Z
 ---------------------------------------------------------------------
      1          8           0        0.000000    0.000000   -1.860091
      2         16           0        0.000000    0.000000    0.930045
 ---------------------------------------------------------------------

 SCF Done:  E(UM062X) =  -473.002532408     A.U. after   19 cycles

 Unable to determine electronic state:  an orbital has unidentified symmetry.
 Alpha  occ. eigenvalues --  -90.03689 -19.75726  -8.39256  -6.31298  -6.31280
 Alpha  occ. eigenvalues --   -6.30373  -1.04305  -0.81301  -0.42788  -0.39337
 Alpha  occ. eigenvalues --   -0.37640  -0.36129
 Alpha virt. eigenvalues --   -0.24668  -0.20947   0.02615   0.04721   0.05197
 Alpha virt. eigenvalues --    0.05629   0.17722   0.19793   0.20017   0.25622
 Alpha virt. eigenvalues --    0.32394   0.33337   0.34504   0.57507   0.74078

  Beta  occ. eigenvalues --  -90.03689 -19.75726  -8.39256  -6.31298  -6.31280
  Beta  occ. eigenvalues --   -6.30373  -1.04305  -0.81301  -0.42788  -0.39337
  Beta  occ. eigenvalues --   -0.37640  -0.36129
  Beta virt. eigenvalues --   -0.24668  -0.20947   0.02615   0.04721   0.05197
  Beta virt. eigenvalues --    0.05629   0.17722   0.19793   0.20017   0.25622
  Beta virt. eigenvalues --    0.32394   0.33337   0.34504   0.57507   0.74078

 Mulliken charges and spin densities:
               1          2
     1  O   -0.209159   0.000000
     2  S    0.209159  -0.000000
 Sum of Mulliken charges =  -0.00000   0.00000

 Dipole moment (field-independent basis, Debye):
    X=              0.0000    Y=              0.0000    Z=              2.7881  Tot=              2.7881
 Quadrupole moment (field-independent basis, Debye-Ang):
   XX=            -20.7978   YY=            -17.3243   ZZ=            -18.5196
   XY=              0.0000   XZ=              0.0000   YZ=              0.0000

 Summary of Natural Population Analysis:

                                       Natural Population
                Natural  -----------------------------------------------
    Atom  No    Charge         Core      Valence    Rydberg      Total
 -----------------------------------------------------------------------
      O    1   -0.12903      1.00000     3.12802    0.00101     4.12903
      S    2    0.12903      4.99999     2.87016    0.00082     7.87097
 =======================================================================
   * Total *   -0.00000      5.99999     5.99817    0.00183    12.00000

 Normal termination of Gaussian 16 at Mon Apr 21 20:01:05 2025.
