 Gaussian 16, Revision A.03,
 Gaussian 16:  ES64L-G16RevA.03 25-Dec-2016

 --------------------------------------------
 #p opt UM062X/6-311+G** nosymm int=superfine
 --------------------------------------------

 -------------------
 Title Card Required
 -------------------
 Symbolic Z-matrix:
 Charge =  1 Multiplicity = 2

 SCF Done:  E(UM062X) =  -92.5736732684     A.U. after   29 cycles
 SCF Done:  E(UM062X) =  -92.5740071061     A.U. after   37 cycles
 Optimization completed.
    -- Stationary point found.

                          Input orientation:
 ---------------------------------------------------------------------
 Center     Atomic      Atomic             Coordinates (Angstroms)
 Number     Number       Type             X           Y           Z
 ---------------------------------------------------------------------
      1          6           0       -2.051540    0.000000    0.000000
      2          7           0        2.051540    0.000000    0.000000
      3          1           0       -3.168994    0.000000    0.000000
 ---------------------------------------------------------------------

 Alpha  occ. eigenvalues --  -15.20213 -10.97914  -1.15801  -0.98975  -0.70891
 Alpha  occ. eigenvalues --   -0.67750  -0.65384
 Alpha virt. eigenvalues --   -0.41288  -0.34227  -0.32775  -0.13672  -0.10011
 Alpha virt. eigenvalues --   -0.07692  -0.06920  -0.04153  -0.02101  -0.01928
 Alpha virt. eigenvalues --   -0.01547   0.06418   0.25587   0.35260   0.35509

  Beta  occ. eigenvalues --  -15.17656 -10.98277  -1.04182  -1.01087  -0.66558
  Beta  occ. eigenvalues --   -0.49798
  Beta virt. eigenvalues --   -0.42873  -0.37916  -0.36059  -0.33180  -0.13448
  Beta virt. eigenvalues --   -0.10289  -0.08259  -0.07934  -0.04743  -0.02729
  Beta virt. eigenvalues --   -0.01976  -0.01559   0.04723   0.26242   0.34879

 Mulliken charges and spin densities:
               1          2
     1  C    0.320826  -0.452338
     2  N    0.438179   1.437701
     3  H    0.240994   0.014637
 Sum of Mulliken charges =   1.00000   1.00000

 Dipole moment (field-independent basis, Debye):
    X=             -3.3719    Y=              0.0000    Z=              0.0000  Tot=              3.3719
 Quadrupole moment (field-independent basis, Debye-Ang):
   XX=             20.5906   YY=             -9.5844   ZZ=            -11.0773
   XY=              0.0000   XZ=              0.0000   YZ=             -0.5107

 Normal termination of Gaussian 16 at Mon Apr 21 18:38:10 2025.
