 Gaussian 16, Revision A.03,
 Gaussian 16:  ES64L-G16RevA.03 25-Dec-2016

 --------------------------------------------
 #p opt UM062X/6-311+G** nosymm int=superfine
 --------------------------------------------

 -------------------
 Title Card Required
 -------------------
 Symbolic Z-matrix:
 Charge =  0 Multiplicity = 1

 SCF Done:  E(UM062X) =  -111.605334445     A.U. after   17 cycles
 SCF Done:  E(UM062X) =  -111.608196692     A.U. after   16 cycles
 SCF Done:  E(UM062X) =  -111.609406906     A.U. after   33 cycles
 SCF Done:  E(UM062X) =  -111.610418876     A.U. after   16 cycles
 SCF Done:  E(UM062X) =  -111.611494616     A.U. after   16 cycles
 SCF Done:  E(UM062X) =  -111.612561116     A.U. after   17 cycles
 SCF Done:  E(UM062X) =  -111.613476901     A.U. after   16 cycles
 SCF Done:  E(UM062X) =  -111.613895039     A.U. after   17 cycles
 SCF Done:  E(UM062X) =  -111.614071716     A.U. after   15 cycles
 SCF Done:  E(UM062X) =  -111.614292479     A.U. after   17 cycles
 SCF Done:  E(UM062X) =  -111.614456828     A.U. after   17 cycles
 SCF Done:  E(UM062X) =  -111.614551122     A.U. after   15 cycles
 SCF Done:  E(UM062X) =  -111.614565238     A.U. after   13 cycles
 SCF Done:  E(UM062X) =  -111.614576882     A.U. after    9 cycles
 SCF Done:  E(UM062X) =  -111.614602712     A.U. after   16 cycles
 SCF Done:  E(UM062X) =  -111.614617531     A.U. after   13 cycles
 SCF Done:  E(UM062X) =  -111.614636401     A.U. after   13 cycles
 SCF Done:  E(UM062X) =  -111.614635285     A.U. after   15 cycles
 SCF Done:  E(UM062X) =  -111.614649275     A.U. after   15 cycles
 SCF Done:  E(UM062X) =  -111.614650488     A.U. after   11 cycles
 Optimization completed.
    -- Stationary point found.

                          Input orientation:
 ---------------------------------------------------------------------
 Center     Atomic      Atomic             Coordinates (Angstroms)
 Number     Number       Type             X           Y           Z
 ---------------------------------------------------------------------
      1          7           0       -2.161540    0.000000    0.000000
      2          7           0        2.161540    0.000000    0.000000
      3          1           0       -2.038421   -0.809257   -0.621299
      4          1           0        2.038944    0.399465   -0.938856
      5          1           0       -2.038508   -0.402140    0.937658
      6          1           0        2.039100    0.811158    0.618931
 ---------------------------------------------------------------------

 Alpha  occ. eigenvalues --  -14.80402 -14.80401  -0.95168  -0.95028  -0.55345
 Alpha  occ. eigenvalues --   -0.55296  -0.40694  -0.40610  -0.27481
 Alpha virt. eigenvalues --   -0.19665   0.03900   0.05815   0.08962   0.11664
 Alpha virt. eigenvalues --    0.11962   0.12844   0.15038   0.16635   0.17468
 Alpha virt. eigenvalues --    0.18321   0.21741   0.29862   0.50801   0.51961

  Beta  occ. eigenvalues --  -14.80402 -14.80401  -0.95168  -0.95028  -0.55345
  Beta  occ. eigenvalues --   -0.55296  -0.40694  -0.40610  -0.27481
  Beta virt. eigenvalues --   -0.19665   0.03900   0.05815   0.08962   0.11664
  Beta virt. eigenvalues --    0.11962   0.12844   0.15038   0.16635   0.17468
  Beta virt. eigenvalues --    0.18321   0.21741   0.29862   0.50801   0.51961

 Mulliken charges and spin densities:
               1          2
     1  N   -0.473071   0.000000
     2  N   -0.473171  -0.000000
     3  H    0.236543  -0.000000
     4  H    0.236550   0.000000
     5  H    0.236572  -0.000000
     6  H    0.236578   0.000000
 Sum of Mulliken charges =  -0.00000   0.00000

 Dipole moment (field-independent basis, Debye):
    X=              0.0014    Y=             -0.0014    Z=             -0.0059  Tot=              0.0063
 Quadrupole moment (field-independent basis, Debye-Ang):
   XX=            -17.5286   YY=            -14.3814   ZZ=            -11.5382
   XY=              8.8801   XZ=             -2.3328   YZ=              0.8023

 Normal termination of Gaussian 16 at Thu May 15 15:28:09 2025.
