 Gaussian 16, Revision A.03,
 Gaussian 16:  ES64L-G16RevA.03 25-Dec-2016

 --------------------------------------------
 #p opt UM062X/6-311+G** nosymm int=superfine
 --------------------------------------------

 -------------------
 Title Card Required
 -------------------
 Symbolic Z-matrix:
 Charge =  1 Multiplicity = 2

 SCF Done:  E(UM062X) =  -76.5413802677     A.U. after   12 cycles
 SCF Done:  E(UM062X) =  -76.5788906316     A.U. after   13 cycles
 SCF Done:  E(UM062X) =  -76.6377070026     A.U. after   11 cycles
 SCF Done:  E(UM062X) =  -76.6674739707     A.U. after   11 cycles
 SCF Done:  E(UM062X) =  -76.6676076447     A.U. after   11 cycles
 Optimization completed.
    -- Stationary point found.

                          Input orientation:
 ---------------------------------------------------------------------
 Center     Atomic      Atomic             Coordinates (Angstroms)
 Number     Number       Type             X           Y           Z
 ---------------------------------------------------------------------
      1          6           0       -0.913373    0.000000    0.000000
      2          6           0        0.913373    0.000000    0.000000
      3          1           0       -2.014870   -0.000000   -0.000000
      4          1           0        2.014847   -0.000000   -0.000000
 ---------------------------------------------------------------------

 Alpha  occ. eigenvalues --  -11.00780 -11.00753  -1.07977  -0.99538  -0.82057
 Alpha  occ. eigenvalues --   -0.61714  -0.59673
 Alpha virt. eigenvalues --   -0.37921  -0.35944  -0.32782  -0.14124  -0.11701
 Alpha virt. eigenvalues --   -0.10233  -0.08836  -0.08608  -0.05359  -0.05067
 Alpha virt. eigenvalues --    0.00801   0.03347   0.06440   0.23510   0.31129

  Beta  occ. eigenvalues --  -11.00519 -11.00500  -1.04446  -0.97700  -0.81033
  Beta  occ. eigenvalues --   -0.57795
  Beta virt. eigenvalues --   -0.39626  -0.34204  -0.30742  -0.29391  -0.15081
  Beta virt. eigenvalues --   -0.12024  -0.10783  -0.09202  -0.09051  -0.05365
  Beta virt. eigenvalues --   -0.05123  -0.00162   0.03437   0.06608   0.23932

 Mulliken charges and spin densities:
               1          2
     1  C    0.128275   0.522552
     2  C    0.128273   0.522552
     3  H    0.371731  -0.022552
     4  H    0.371722  -0.022552
 Sum of Mulliken charges =   1.00000   1.00000

 Dipole moment (field-independent basis, Debye):
    X=             -0.0001    Y=             -0.0000    Z=             -0.0000  Tot=              0.0001
 Quadrupole moment (field-independent basis, Debye-Ang):
   XX=              4.4047   YY=            -12.3051   ZZ=            -11.6726
   XY=              0.0000   XZ=              0.0000   YZ=             -1.0200

 Normal termination of Gaussian 16 at Tue Nov 19 13:21:54 2024.
