 Gaussian 16, Revision A.03,
 Gaussian 16:  ES64L-G16RevA.03 25-Dec-2016

 --------------------------------------------
 #p opt UM062X/6-311+G** nosymm int=superfine
 --------------------------------------------

 -------------------
 Title Card Required
 -------------------
 Symbolic Z-matrix:
 Charge =  0 Multiplicity = 1

 SCF Done:  E(UM062X) =  -111.603971245     A.U. after   16 cycles
 SCF Done:  E(UM062X) =  -111.606632226     A.U. after   16 cycles
 SCF Done:  E(UM062X) =  -111.729644311     A.U. after   37 cycles
 SCF Done:  E(UM062X) =  -111.729893112     A.U. after   14 cycles
 SCF Done:  E(UM062X) =  -111.730261858     A.U. after   16 cycles
 SCF Done:  E(UM062X) =  -111.731027688     A.U. after   18 cycles
 SCF Done:  E(UM062X) =  -111.731401512     A.U. after   18 cycles
 SCF Done:  E(UM062X) =  -111.731442141     A.U. after   15 cycles
 SCF Done:  E(UM062X) =  -111.731475106     A.U. after   15 cycles
 SCF Done:  E(UM062X) =  -111.731502459     A.U. after   16 cycles
 SCF Done:  E(UM062X) =  -111.731515992     A.U. after   15 cycles
 SCF Done:  E(UM062X) =  -111.731517529     A.U. after   10 cycles
 SCF Done:  E(UM062X) =  -111.731517611     A.U. after    9 cycles
 Optimization completed.
    -- Stationary point found.

                          Input orientation:
 ---------------------------------------------------------------------
 Center     Atomic      Atomic             Coordinates (Angstroms)
 Number     Number       Type             X           Y           Z
 ---------------------------------------------------------------------
      1          7           0       -2.211540    0.000000    0.000000
      2          7           0        2.211540    0.000000    0.000000
      3          1           0       -2.009313   -0.859722   -0.522786
      4          1           0        2.010719    0.490638   -0.878792
      5          1           0       -2.294916   -0.327970    0.968859
      6          1           0        2.295602    0.762779    0.681401
 ---------------------------------------------------------------------

 Alpha  occ. eigenvalues --  -14.77573 -14.76485  -0.96389  -0.90088  -0.55022
 Alpha  occ. eigenvalues --   -0.53175  -0.40863  -0.38920  -0.37461
 Alpha virt. eigenvalues --   -0.07028   0.03105   0.05876   0.08737   0.11383
 Alpha virt. eigenvalues --    0.12510   0.12992   0.15149   0.17077   0.17976
 Alpha virt. eigenvalues --    0.18790   0.21219   0.30129   0.51472   0.52743

  Beta  occ. eigenvalues --  -14.77571 -14.76487  -0.96387  -0.90090  -0.55019
  Beta  occ. eigenvalues --   -0.53177  -0.40861  -0.38918  -0.37462
  Beta virt. eigenvalues --   -0.07030   0.03104   0.05877   0.08737   0.11383
  Beta virt. eigenvalues --    0.12512   0.12990   0.15149   0.17077   0.17977
  Beta virt. eigenvalues --    0.18789   0.21218   0.30129   0.51471   0.52742

 Mulliken charges and spin densities:
               1          2
     1  N   -0.444093  -1.077418
     2  N   -0.444118   1.077406
     3  H    0.222483   0.040585
     4  H    0.222494  -0.040579
     5  H    0.221612   0.040258
     6  H    0.221621  -0.040252
 Sum of Mulliken charges =  -0.00000   0.00000

 Dipole moment (field-independent basis, Debye):
    X=              0.0036    Y=              0.1069    Z=              0.4045  Tot=              0.4184
 Quadrupole moment (field-independent basis, Debye-Ang):
   XX=            -16.0392   YY=            -14.2666   ZZ=            -11.5371
   XY=              9.0079   XZ=             -2.3751   YZ=              0.7725

 Normal termination of Gaussian 16 at Thu May 15 15:31:54 2025.
