 Gaussian 16, Revision A.03,
 Gaussian 16:  ES64L-G16RevA.03 25-Dec-2016

 --------------------------------------------
 #p opt UM062X/6-311+G** nosymm int=superfine
 --------------------------------------------

 -------------------
 Title Card Required
 -------------------
 Symbolic Z-matrix:
 Charge =  0 Multiplicity = 3

 SCF Done:  E(UM062X) =  -50.5039863075     A.U. after   13 cycles
 SCF Done:  E(UM062X) =  -50.5049210682     A.U. after   10 cycles
 SCF Done:  E(UM062X) =  -50.5049280542     A.U. after    8 cycles
 Optimization completed.
    -- Stationary point found.

                          Input orientation:
 ---------------------------------------------------------------------
 Center     Atomic      Atomic             Coordinates (Angstroms)
 Number     Number       Type             X           Y           Z
 ---------------------------------------------------------------------
      1          5           0       -1.603410    0.000000    0.000000
      2          5           0        1.603410    0.000000    0.000000
      3          1           0       -2.809185   -0.000082    0.000000
      4          1           0        2.809185    0.000082   -0.000000
 ---------------------------------------------------------------------

 Alpha  occ. eigenvalues --   -7.13940  -7.13939  -0.56709  -0.56211  -0.34921
 Alpha  occ. eigenvalues --   -0.27907  -0.18631
 Alpha virt. eigenvalues --   -0.08540  -0.06687  -0.04565   0.02636   0.02761
 Alpha virt. eigenvalues --    0.05997   0.07185   0.07231   0.08135   0.08259
 Alpha virt. eigenvalues --    0.12021   0.18774   0.22769   0.35318   0.39093

  Beta  occ. eigenvalues --   -7.13010  -7.13008  -0.53320  -0.53010  -0.26161
  Beta virt. eigenvalues --   -0.07844  -0.04849  -0.04351  -0.02228  -0.01798
  Beta virt. eigenvalues --    0.01694   0.02621   0.06952   0.07175   0.07327
  Beta virt. eigenvalues --    0.08396   0.09467   0.09740   0.19949   0.24050

 Mulliken charges and spin densities:
               1          2
     1  B   -0.067128   0.916871
     2  B   -0.067127   0.916870
     3  H    0.067128   0.083130
     4  H    0.067128   0.083130
 Sum of Mulliken charges =  -0.00000   2.00000

 Dipole moment (field-independent basis, Debye):
    X=              0.0000    Y=             -0.0000    Z=              0.0000  Tot=              0.0000
 Quadrupole moment (field-independent basis, Debye-Ang):
   XX=             -9.8091   YY=            -13.5561   ZZ=            -17.6118
   XY=              0.0000   XZ=             -0.0000   YZ=             -0.0020

 1\1\GINC-NODE06\FOpt\UM062X\6-311+G(d,p)\B2H2(3)\SZHAO\21-Apr-2025\0\\
 #p opt UM062X/6-311+G** nosymm int=superfine\\Title Card Required\\0,3
 \B,-1.60341047,0.,0.\B,1.60341047,0.,0.\H,-2.8091851262,-0.0000822305,
 0.0000000553\H,2.8091851267,0.0000822303,-0.0000000239\\Version=ES64L-
 G16RevA.03\HF=-50.5049281\S2=2.013459\S2-1=0.\S2A=2.000013\RMSD=2.336e
 -09\RMSF=6.592e-07\Dipole=0.0000009,0.,0.\Quadrupole=2.8622975,0.07649
 87,-2.9387962,0.0000212,0.,-0.0014527\PG=C*V [C*(H1B1B1H1)]\\@

 Normal termination of Gaussian 16 at Mon Apr 21 17:28:50 2025.
