 Gaussian 16, Revision A.03,
 Gaussian 16:  ES64L-G16RevA.03 25-Dec-2016

 --------------------------------------------
 #p opt UM062X/6-311+G** nosymm int=superfine
 --------------------------------------------

 -------------------
 Title Card Required
 -------------------
 Symbolic Z-matrix:
 Charge =  1 Multiplicity = 2

 SCF Done:  E(UM062X) =  -76.8971589702     A.U. after   10 cycles
 SCF Done:  E(UM062X) =  -76.8985701034     A.U. after    9 cycles
 SCF Done:  E(UM062X) =  -76.8985711848     A.U. after    6 cycles
 Optimization completed.
    -- Stationary point found.

                          Input orientation:
 ---------------------------------------------------------------------
 Center     Atomic      Atomic             Coordinates (Angstroms)
 Number     Number       Type             X           Y           Z
 ---------------------------------------------------------------------
      1          6           0       -0.602702    0.000000    0.000000
      2          6           0        0.602702    0.000000    0.000000
      3          1           0       -1.682648   -0.000000    0.000000
      4          1           0        1.682648   -0.000000   -0.000000
 ---------------------------------------------------------------------

 Alpha  occ. eigenvalues --  -10.93537 -10.93255  -1.24279  -0.96867  -0.89888
 Alpha  occ. eigenvalues --   -0.74072  -0.71269
 Alpha virt. eigenvalues --   -0.26323  -0.24330  -0.15106  -0.14536  -0.11631
 Alpha virt. eigenvalues --   -0.10475  -0.10216  -0.05588  -0.04652  -0.04187
 Alpha virt. eigenvalues --    0.02307   0.04560   0.16634   0.18374   0.28790

  Beta  occ. eigenvalues --  -10.93281 -10.93025  -1.19360  -0.95292  -0.89315
  Beta  occ. eigenvalues --   -0.68734
  Beta virt. eigenvalues --   -0.46966  -0.22772  -0.20223  -0.15634  -0.14343
  Beta virt. eigenvalues --   -0.11713  -0.10712  -0.10405  -0.05040  -0.03982
  Beta virt. eigenvalues --   -0.03303   0.02149   0.04829   0.17148   0.19189

 Mulliken charges and spin densities:
               1          2
     1  C    0.197290   0.519348
     2  C    0.197290   0.519348
     3  H    0.302710  -0.019348
     4  H    0.302710  -0.019348
 Sum of Mulliken charges =   1.00000   1.00000

 Dipole moment (field-independent basis, Debye):
    X=              0.0000    Y=             -0.0000    Z=             -0.0000  Tot=              0.0000
 Quadrupole moment (field-independent basis, Debye-Ang):
   XX=             -0.7738   YY=            -10.8314   ZZ=             -9.9535
   XY=             -0.0000   XZ=             -0.0000   YZ=             -0.7691

 Normal termination of Gaussian 16 at Tue Nov 19 13:00:39 2024.
