 Gaussian 16, Revision A.03,
 Gaussian 16:  ES64L-G16RevA.03 25-Dec-2016

 --------------------------------------------
 #p opt UM062X/6-311+G** nosymm int=superfine
 --------------------------------------------

 -------------------
 Title Card Required
 -------------------
 Symbolic Z-matrix:
 Charge =  0 Multiplicity = 1

 SCF Done:  E(UM062X) =  -95.6501505141     A.U. after   13 cycles
 SCF Done:  E(UM062X) =  -95.6675064856     A.U. after   11 cycles
 SCF Done:  E(UM062X) =  -95.6769095401     A.U. after   11 cycles
 SCF Done:  E(UM062X) =  -95.6770472738     A.U. after   10 cycles
 SCF Done:  E(UM062X) =  -95.6770707795     A.U. after    9 cycles
 SCF Done:  E(UM062X) =  -95.6770830632     A.U. after   10 cycles
 SCF Done:  E(UM062X) =  -95.6770849253     A.U. after    9 cycles
 SCF Done:  E(UM062X) =  -95.6770853797     A.U. after    8 cycles
 Optimization completed.
    -- Stationary point found.

                          Input orientation:
 ---------------------------------------------------------------------
 Center     Atomic      Atomic             Coordinates (Angstroms)
 Number     Number       Type             X           Y           Z
 ---------------------------------------------------------------------
      1          6           0       -1.355542    0.000000    0.000000
      2          7           0        1.355542    0.000000    0.000000
      3          1           0        1.366900   -1.015767    0.137314
      4          1           0       -1.438247    1.077098    0.003195
      5          1           0        1.366802    0.368319    0.956546
      6          1           0       -1.438237   -0.518805   -0.943924
      7          1           0       -1.540953   -0.543574    0.915922
 ---------------------------------------------------------------------

 Alpha  occ. eigenvalues --  -14.75134 -10.60850  -0.90375  -0.79511  -0.51710
 Alpha  occ. eigenvalues --   -0.51628  -0.50408  -0.36061  -0.28727
 Alpha virt. eigenvalues --   -0.08771   0.01637   0.04932   0.05473   0.06773
 Alpha virt. eigenvalues --    0.10407   0.13405   0.15987   0.16655   0.17683
 Alpha virt. eigenvalues --    0.19952   0.21690   0.22223   0.31278   0.41417

  Beta  occ. eigenvalues --  -14.75134 -10.60850  -0.90375  -0.79511  -0.51710
  Beta  occ. eigenvalues --   -0.51628  -0.50408  -0.36062  -0.28727
  Beta virt. eigenvalues --   -0.08771   0.01637   0.04932   0.05473   0.06773
  Beta virt. eigenvalues --    0.10407   0.13405   0.15987   0.16655   0.17683
  Beta virt. eigenvalues --    0.19952   0.21690   0.22223   0.31278   0.41417

 Mulliken charges and spin densities:
               1          2
     1  C   -0.427496   0.000012
     2  N   -0.595771  -0.000012
     3  H    0.224882   0.000000
     4  H    0.196551  -0.000000
     5  H    0.224878   0.000000
     6  H    0.196586  -0.000000
     7  H    0.180369  -0.000000
 Sum of Mulliken charges =  -0.00000   0.00000

 Dipole moment (field-independent basis, Debye):
    X=             -2.4513    Y=             -0.9499    Z=              1.6049  Tot=              3.0801
 Quadrupole moment (field-independent basis, Debye-Ang):
   XX=            -15.2210   YY=            -13.3253   ZZ=            -14.1406
   XY=             -1.4832   XZ=              2.5058   YZ=              0.7429

 Normal termination of Gaussian 16 at Mon Apr 21 18:12:32 2025.
