 Gaussian 16, Revision A.03,
 Gaussian 16:  ES64L-G16RevA.03 25-Dec-2016

 --------------------------------------------
 #p opt UM062X/6-311+G** nosymm int=superfine
 --------------------------------------------

 -------------------
 Title Card Required
 -------------------
 Symbolic Z-matrix:
 Charge =  0 Multiplicity = 1

 SCF Done:  E(UM062X) =  -379.545786505     A.U. after   19 cycles
 SCF Done:  E(UM062X) =  -379.547239318     A.U. after   12 cycles
 SCF Done:  E(UM062X) =  -379.547245821     A.U. after   11 cycles
 Optimization completed.
    -- Stationary point found.

                          Input orientation:
 ---------------------------------------------------------------------
 Center     Atomic      Atomic             Coordinates (Angstroms)
 Number     Number       Type             X           Y           Z
 ---------------------------------------------------------------------
      1          6           0       -2.265377    0.000000    0.000000
      2         15           0        2.265377    0.000000    0.000000
      3          1           0       -3.388663    0.000000    0.000000
 ---------------------------------------------------------------------

 Alpha  occ. eigenvalues --  -78.05970 -10.72419  -6.87933  -4.99865  -4.98905
 Alpha  occ. eigenvalues --   -4.98905  -0.77218  -0.59663  -0.42814  -0.22684
 Alpha  occ. eigenvalues --   -0.22684
 Alpha virt. eigenvalues --   -0.16297  -0.16297  -0.11254   0.00976   0.04374
 Alpha virt. eigenvalues --    0.05884   0.05884   0.07473   0.08102   0.08102
 Alpha virt. eigenvalues --    0.12365   0.15346   0.33345   0.34021   0.34021

  Beta  occ. eigenvalues --  -78.05970 -10.72419  -6.87933  -4.99865  -4.98905
  Beta  occ. eigenvalues --   -4.98905  -0.77218  -0.59663  -0.42814  -0.22684
  Beta  occ. eigenvalues --   -0.22684
  Beta virt. eigenvalues --   -0.16297  -0.16297  -0.11254   0.00976   0.04374
  Beta virt. eigenvalues --    0.05884   0.05884   0.07473   0.08102   0.08102
  Beta virt. eigenvalues --    0.12365   0.15346   0.33345   0.34021   0.34021

 Mulliken charges and spin densities:
               1          2
     1  C   -0.042059  -0.000000
     2  P   -0.112846   0.000000
     3  H    0.154905   0.000000
 Sum of Mulliken charges =  -0.00000   0.00000

 Dipole moment (field-independent basis, Debye):
    X=             -4.3288    Y=              0.0000    Z=             -0.0000  Tot=              4.3288
 Quadrupole moment (field-independent basis, Debye-Ang):
   XX=             -9.4765   YY=            -24.1165   ZZ=            -24.1165
   XY=             -0.0000   XZ=              0.0000   YZ=             -0.0000

 Normal termination of Gaussian 16 at Mon Apr 21 19:25:55 2025.
