 Gaussian 16, Revision A.03,
 Gaussian 16:  ES64L-G16RevA.03 25-Dec-2016

 ---------------------------------------
 #p UM062X/6-311+G** force int=superfine
 ---------------------------------------

 -------------------
 Title Card Required
 -------------------
 Symbolic Z-matrix:
 Charge =  1 Multiplicity = 2

                         Standard orientation:
 ---------------------------------------------------------------------
 Center     Atomic      Atomic             Coordinates (Angstroms)
 Number     Number       Type             X           Y           Z
 ---------------------------------------------------------------------
      1          7           0        0.000000    0.000000    1.080391
      2          7           0        0.000000    0.000000   -1.080391
 ---------------------------------------------------------------------

 SCF Done:  E(UM062X) =  -108.528283884     A.U. after   10 cycles

 Unable to determine electronic state:  partially filled degenerate orbitals.
 Alpha  occ. eigenvalues --  -15.36896 -15.36881  -1.28376  -1.20391  -0.76391
 Alpha  occ. eigenvalues --   -0.73866  -0.71260
 Alpha virt. eigenvalues --   -0.57490  -0.54814  -0.48212  -0.13386  -0.09057
 Alpha virt. eigenvalues --   -0.08833  -0.08797  -0.03622  -0.03136  -0.02857
 Alpha virt. eigenvalues --    0.05494   0.43891   0.45449   0.52266   0.53166

  Beta  occ. eigenvalues --  -15.36441 -15.36431  -1.24524  -1.16984  -0.74485
  Beta  occ. eigenvalues --   -0.69539
  Beta virt. eigenvalues --   -0.53016  -0.50206  -0.46493  -0.45873  -0.14812
  Beta virt. eigenvalues --   -0.09351  -0.09221  -0.09106  -0.04287  -0.03144
  Beta virt. eigenvalues --   -0.03127   0.04116   0.45679   0.45680   0.52151

 Mulliken charges and spin densities:
               1          2
     1  N    0.500000   0.500000
     2  N    0.500000   0.500000
 Sum of Mulliken charges =   1.00000   1.00000

 Dipole moment (field-independent basis, Debye):
    X=              0.0000    Y=              0.0000    Z=              0.0000  Tot=              0.0000
 Quadrupole moment (field-independent basis, Debye-Ang):
   XX=             -9.9446   YY=             -8.4890   ZZ=             -3.0198
   XY=              0.0000   XZ=             -0.0000   YZ=             -0.0000

 Optimization completed.
    -- Stationary point found.
 Normal termination of Gaussian 16 at Wed Feb 26 13:55:16 2025.
