 Gaussian 16, Revision A.03,
 Gaussian 16:  ES64L-G16RevA.03 25-Dec-2016

 --------------------------------------------
 #p opt UM062X/6-311+G** nosymm int=superfine
 --------------------------------------------

 -------------------
 Title Card Required
 -------------------
 Symbolic Z-matrix:
 Charge =  0 Multiplicity = 1

 SCF Done:  E(UM062X) =  -151.294363956     A.U. after   25 cycles
 SCF Done:  E(UM062X) =  -151.294658972     A.U. after   22 cycles
 SCF Done:  E(UM062X) =  -151.294859254     A.U. after   24 cycles
 SCF Done:  E(UM062X) =  -151.295146473     A.U. after   46 cycles
 SCF Done:  E(UM062X) =  -151.295311962     A.U. after   35 cycles
 SCF Done:  E(UM062X) =  -151.295507182     A.U. after   21 cycles
 SCF Done:  E(UM062X) =  -151.295617800     A.U. after   21 cycles
 SCF Done:  E(UM062X) =  -151.295715505     A.U. after   26 cycles
 SCF Done:  E(UM062X) =  -151.295781004     A.U. after   22 cycles
 SCF Done:  E(UM062X) =  -151.295823469     A.U. after   24 cycles
 SCF Done:  E(UM062X) =  -151.295829760     A.U. after   22 cycles
 SCF Done:  E(UM062X) =  -151.295830050     A.U. after   25 cycles
 SCF Done:  E(UM062X) =  -151.295830077     A.U. after   17 cycles
 Optimization completed.
    -- Stationary point found.

                          Input orientation:
 ---------------------------------------------------------------------
 Center     Atomic      Atomic             Coordinates (Angstroms)
 Number     Number       Type             X           Y           Z
 ---------------------------------------------------------------------
      1          8           0       -2.186938    0.000000    0.000000
      2          8           0        2.186938    0.000000    0.000000
      3          1           0       -1.998562   -0.755169   -0.584750
      4          1           0        1.998820    0.754629    0.585527
 ---------------------------------------------------------------------

 Alpha  occ. eigenvalues --  -19.72084 -19.72084  -1.12773  -1.12681  -0.56555
 Alpha  occ. eigenvalues --   -0.56530  -0.43965  -0.43926  -0.35113
 Alpha virt. eigenvalues --   -0.27988   0.05317   0.07094   0.15478   0.15511
 Alpha virt. eigenvalues --    0.15605   0.17784   0.18850   0.19745   0.19887
 Alpha virt. eigenvalues --    0.29046   0.49622   0.49969   0.99730   1.00972

  Beta  occ. eigenvalues --  -19.72084 -19.72084  -1.12773  -1.12681  -0.56555
  Beta  occ. eigenvalues --   -0.56530  -0.43965  -0.43926  -0.35113
  Beta virt. eigenvalues --   -0.27988   0.05317   0.07094   0.15478   0.15511
  Beta virt. eigenvalues --    0.15605   0.17784   0.18850   0.19745   0.19887
  Beta virt. eigenvalues --    0.29046   0.49622   0.49969   0.99730   1.00972

 Mulliken charges and spin densities:
               1          2
     1  O   -0.265039  -0.000000
     2  O   -0.265051   0.000000
     3  H    0.265046   0.000000
     4  H    0.265044   0.000000
 Sum of Mulliken charges =  -0.00000  -0.00000

 Dipole moment (field-independent basis, Debye):
    X=              0.0004    Y=             -0.0011    Z=              0.0015  Tot=              0.0019
 Quadrupole moment (field-independent basis, Debye-Ang):
   XX=            -14.1457   YY=            -10.6139   ZZ=            -11.8684
   XY=              6.0567   XZ=              4.6944   YZ=              2.4359

 Normal termination of Gaussian 16 at Mon Apr 21 21:39:17 2025.
