 Gaussian 16, Revision A.03,
 Gaussian 16:  ES64L-G16RevA.03 25-Dec-2016

 --------------------------------------------
 #p opt UM062X/6-311+G** nosymm int=superfine
 --------------------------------------------

 -------------------
 Title Card Required
 -------------------
 Symbolic Z-matrix:
 Charge =  0 Multiplicity = 1

 SCF Done:  E(UM062X) =  -79.7903731910     A.U. after    8 cycles
 SCF Done:  E(UM062X) =  -79.7921844719     A.U. after    8 cycles
 SCF Done:  E(UM062X) =  -79.7922070642     A.U. after    7 cycles
 Optimization completed.
    -- Stationary point found.

                          Input orientation:
 ---------------------------------------------------------------------
 Center     Atomic      Atomic             Coordinates (Angstroms)
 Number     Number       Type             X           Y           Z
 ---------------------------------------------------------------------
      1          6           0       -0.717734    0.000000    0.000000
      2          6           0        0.717808    0.000000    0.000000
      3          1           0        1.133774   -0.875673    0.506720
      4          1           0       -1.133687   -0.876673   -0.505005
      5          1           0        1.133761    0.876674    0.505003
      6          1           0        1.133785   -0.000975   -1.011718
      7          1           0       -1.133700    0.875672   -0.506723
      8          1           0       -1.133713    0.000974    1.011717
 ---------------------------------------------------------------------

 Alpha  occ. eigenvalues --  -10.51580 -10.51522  -0.86741  -0.69496  -0.50992
 Alpha  occ. eigenvalues --   -0.50991  -0.44785  -0.39233  -0.39232
 Alpha virt. eigenvalues --    0.02162   0.04158   0.05375   0.05375   0.08826
 Alpha virt. eigenvalues --    0.08826   0.08840   0.14041   0.18950   0.18950
 Alpha virt. eigenvalues --    0.20726   0.20726   0.24111   0.27780   0.31994

  Beta  occ. eigenvalues --  -10.51580 -10.51522  -0.86741  -0.69496  -0.50992
  Beta  occ. eigenvalues --   -0.50991  -0.44785  -0.39233  -0.39232
  Beta virt. eigenvalues --    0.02162   0.04158   0.05375   0.05375   0.08826
  Beta virt. eigenvalues --    0.08826   0.08840   0.14041   0.18950   0.18950
  Beta virt. eigenvalues --    0.20726   0.20726   0.24111   0.27780   0.31994

 Mulliken charges and spin densities:
               1          2
     1  C   -0.461019  -0.000000
     2  C   -0.461019   0.000000
     3  H    0.153673  -0.000000
     4  H    0.153673  -0.000000
     5  H    0.153673  -0.000000
     6  H    0.153674  -0.000000
     7  H    0.153673  -0.000000
     8  H    0.153674  -0.000000
 Sum of Mulliken charges =  -0.00000  -0.00000

 Dipole moment (field-independent basis, Debye):
    X=             -0.0000    Y=             -0.0000    Z=             -0.0000  Tot=              0.0000
 Quadrupole moment (field-independent basis, Debye-Ang):
   XX=            -15.6321   YY=            -14.9682   ZZ=            -14.9682
   XY=             -0.0000   XZ=             -0.0000   YZ=             -0.0000

 Normal termination of Gaussian 16 at Tue Nov 19 11:51:35 2024.
