 Gaussian 16, Revision A.03,
 Gaussian 16:  ES64L-G16RevA.03 25-Dec-2016

 --------------------------------------------
 #p opt UM062X/6-311+G** nosymm int=superfine
 --------------------------------------------

 -------------------
 Title Card Required
 -------------------
 Symbolic Z-matrix:
 Charge =  0 Multiplicity = 1

 SCF Done:  E(UM062X) =  -111.831537740     A.U. after   11 cycles
 SCF Done:  E(UM062X) =  -111.836199150     A.U. after   12 cycles
 SCF Done:  E(UM062X) =  -111.836524011     A.U. after   11 cycles
 SCF Done:  E(UM062X) =  -111.836538700     A.U. after   10 cycles
 SCF Done:  E(UM062X) =  -111.836539085     A.U. after    8 cycles
 Optimization completed.
    -- Stationary point found.

                          Input orientation:
 ---------------------------------------------------------------------
 Center     Atomic      Atomic             Coordinates (Angstroms)
 Number     Number       Type             X           Y           Z
 ---------------------------------------------------------------------
      1          7           0       -0.811540    0.000000    0.000000
      2          7           0        0.811540    0.000000    0.000000
      3          1           0       -1.011807   -0.994511   -0.038048
      4          1           0        1.011867    0.829875   -0.549354
      5          1           0       -1.093852    0.316970    0.924083
      6          1           0        1.093855    0.209363    0.954231
 ---------------------------------------------------------------------

 Alpha  occ. eigenvalues --  -14.76732 -14.76717  -1.01942  -0.87015  -0.56804
 Alpha  occ. eigenvalues --   -0.54611  -0.48020  -0.36561  -0.32769
 Alpha virt. eigenvalues --    0.04078   0.04523   0.09291   0.10729   0.13711
 Alpha virt. eigenvalues --    0.13778   0.15305   0.16449   0.17480   0.20648
 Alpha virt. eigenvalues --    0.23462   0.26369   0.26915   0.51629   0.56467

  Beta  occ. eigenvalues --  -14.76732 -14.76717  -1.01942  -0.87015  -0.56804
  Beta  occ. eigenvalues --   -0.54611  -0.48020  -0.36561  -0.32769
  Beta virt. eigenvalues --    0.04078   0.04523   0.09291   0.10729   0.13711
  Beta virt. eigenvalues --    0.13778   0.15305   0.16449   0.17480   0.20648
  Beta virt. eigenvalues --    0.23462   0.26369   0.26915   0.51629   0.56467

 Mulliken charges and spin densities:
               1          2
     1  N   -0.524479   0.000000
     2  N   -0.524483  -0.000000
     3  H    0.280388  -0.000000
     4  H    0.280390  -0.000000
     5  H    0.244093  -0.000000
     6  H    0.244091   0.000000
 Sum of Mulliken charges =  -0.00000  -0.00000

 Dipole moment (field-independent basis, Debye):
    X=              0.0001    Y=              0.5609    Z=              2.0017  Tot=              2.0788
 Quadrupole moment (field-independent basis, Debye-Ang):
   XX=            -14.0528   YY=            -13.0472   ZZ=            -12.4108
   XY=              3.3712   XZ=             -0.9449   YZ=              0.1934

 Normal termination of Gaussian 16 at Thu May 15 14:22:25 2025.
