 Gaussian 16, Revision A.03,
 Gaussian 16:  ES64L-G16RevA.03 25-Dec-2016

 ---------------------------------------
 #p UM062X/6-311+G** force int=superfine
 ---------------------------------------

 -------------------
 Title Card Required
 -------------------
 Symbolic Z-matrix:
 Charge =  0 Multiplicity = 1

                         Standard orientation:
 ---------------------------------------------------------------------
 Center     Atomic      Atomic             Coordinates (Angstroms)
 Number     Number       Type             X           Y           Z
 ---------------------------------------------------------------------
      1          7           0        0.000000    0.000000    1.870048
      2          7           0        0.000000    0.000000   -1.870048
 ---------------------------------------------------------------------

 SCF Done:  E(UM062X) =  -108.708842331     A.U. after    9 cycles

 The electronic state is 1-SGG.
 Alpha  occ. eigenvalues --  -14.95984 -14.95982  -0.87031  -0.86505  -0.32736
 Alpha  occ. eigenvalues --   -0.32027  -0.32027
 Alpha virt. eigenvalues --   -0.24284  -0.24284  -0.23310   0.06795   0.09231
 Alpha virt. eigenvalues --    0.10971   0.10971   0.14323   0.14639   0.14639
 Alpha virt. eigenvalues --    0.21536   0.77469   0.77469   0.78447   0.78447

  Beta  occ. eigenvalues --  -14.95984 -14.95982  -0.87031  -0.86505  -0.32736
  Beta  occ. eigenvalues --   -0.32027  -0.32027
  Beta virt. eigenvalues --   -0.24284  -0.24284  -0.23310   0.06795   0.09231
  Beta virt. eigenvalues --    0.10971   0.10971   0.14323   0.14639   0.14639
  Beta virt. eigenvalues --    0.21536   0.77469   0.77469   0.78447   0.78447

 Mulliken charges and spin densities:
               1          2
     1  N   -0.000000   0.000000
     2  N   -0.000000   0.000000
 Sum of Mulliken charges =  -0.00000   0.00000

 Dipole moment (field-independent basis, Debye):
    X=             -0.0000    Y=              0.0000    Z=             -0.0000  Tot=              0.0000
 Quadrupole moment (field-independent basis, Debye-Ang):
   XX=            -12.4360   YY=            -12.4360   ZZ=            -10.9200
   XY=              0.0000   XZ=             -0.0000   YZ=              0.0000

 Optimization completed.
    -- Stationary point found.
 Normal termination of Gaussian 16 at Wed Feb 26 14:03:37 2025.
