 Gaussian 16, Revision A.03,
 Gaussian 16:  ES64L-G16RevA.03 25-Dec-2016

 --------------------------------------------
 #p opt UM062X/6-311+G** nosymm int=superfine
 --------------------------------------------

 -------------------
 Title Card Required
 -------------------
 Symbolic Z-matrix:
 Charge =  1 Multiplicity = 2

 SCF Done:  E(UM062X) =  -579.702512151     A.U. after   19 cycles
 SCF Done:  E(UM062X) =  -579.703216598     A.U. after   16 cycles
 SCF Done:  E(UM062X) =  -579.704799521     A.U. after   17 cycles
 SCF Done:  E(UM062X) =  -579.705858439     A.U. after   14 cycles
 SCF Done:  E(UM062X) =  -579.706926574     A.U. after   16 cycles
 SCF Done:  E(UM062X) =  -579.708797151     A.U. after   16 cycles
 SCF Done:  E(UM062X) =  -579.709914851     A.U. after   14 cycles
 SCF Done:  E(UM062X) =  -579.710023144     A.U. after   12 cycles
 SCF Done:  E(UM062X) =  -579.710039328     A.U. after   11 cycles
 SCF Done:  E(UM062X) =  -579.710040338     A.U. after   10 cycles
 Optimization completed.
    -- Stationary point found.

                          Input orientation:
 ---------------------------------------------------------------------
 Center     Atomic      Atomic             Coordinates (Angstroms)
 Number     Number       Type             X           Y           Z
 ---------------------------------------------------------------------
      1         14           0       -1.402975    0.000000    0.000000
      2         14           0        1.402975    0.000000    0.000000
      3          1           0       -1.123358   -1.490442    0.000106
      4          1           0        2.888952    0.070636    0.000009
 ---------------------------------------------------------------------

 Alpha  occ. eigenvalues --  -67.28320 -67.28106  -5.82485  -5.82327  -4.13742
 Alpha  occ. eigenvalues --   -4.13536  -4.13495  -4.13294  -4.12858  -4.12853
 Alpha  occ. eigenvalues --   -0.80860  -0.75569  -0.57195  -0.53156  -0.44795
 Alpha virt. eigenvalues --   -0.29528  -0.28647  -0.26333  -0.13059  -0.10229
 Alpha virt. eigenvalues --   -0.09315  -0.08523  -0.08030  -0.07053  -0.05611
 Alpha virt. eigenvalues --   -0.05609  -0.02667  -0.00001   0.12389   0.13140

  Beta  occ. eigenvalues --  -67.28248 -67.27622  -5.82476  -5.82150  -4.13404
  Beta  occ. eigenvalues --   -4.13321  -4.13274  -4.12845  -4.12681  -4.12391
  Beta  occ. eigenvalues --   -0.78740  -0.74066  -0.56219  -0.52821
  Beta virt. eigenvalues --   -0.30148  -0.28364  -0.25469  -0.24517  -0.14711
  Beta virt. eigenvalues --   -0.10582  -0.10011  -0.08369  -0.07664  -0.07600
  Beta virt. eigenvalues --   -0.05286  -0.04409  -0.03773   0.00009   0.11085

 Mulliken charges and spin densities:
               1          2
     1  Si   0.705299   0.175025
     2  Si   0.332712   0.847949
     3  H   -0.091945  -0.007759
     4  H    0.053934  -0.015214
 Sum of Mulliken charges =   1.00000   1.00000

 Dipole moment (field-independent basis, Debye):
    X=              0.5880    Y=             -0.3812    Z=              0.0000  Tot=              0.7007
 Quadrupole moment (field-independent basis, Debye-Ang):
   XX=             -8.9975   YY=            -23.3662   ZZ=            -23.6605
   XY=              1.1933   XZ=             -0.0001   YZ=             -0.0000

 Normal termination of Gaussian 16 at Mon Apr 21 20:38:34 2025.
