 Gaussian 16, Revision A.03,
 Gaussian 16:  ES64L-G16RevA.03 25-Dec-2016

 --------------------------------------------
 #p opt UM062X/6-311+G** nosymm int=superfine
 --------------------------------------------

 -------------------
 Title Card Required
 -------------------
 Symbolic Z-matrix:
 Charge =  0 Multiplicity = 1

 SCF Done:  E(UM062X) =  -94.4124532732     A.U. after   12 cycles
 SCF Done:  E(UM062X) =  -94.4212081378     A.U. after   11 cycles
 SCF Done:  E(UM062X) =  -94.4218398018     A.U. after   11 cycles
 SCF Done:  E(UM062X) =  -94.4212090920     A.U. after   12 cycles
 SCF Done:  E(UM062X) =  -94.4218793353     A.U. after   12 cycles
 SCF Done:  E(UM062X) =  -94.4215739277     A.U. after   12 cycles
 SCF Done:  E(UM062X) =  -94.4218183203     A.U. after   12 cycles
 SCF Done:  E(UM062X) =  -94.4219644760     A.U. after    8 cycles
 SCF Done:  E(UM062X) =  -94.4219747055     A.U. after   14 cycles
 Optimization completed.
    -- Stationary point found.

                          Input orientation:
 ---------------------------------------------------------------------
 Center     Atomic      Atomic             Coordinates (Angstroms)
 Number     Number       Type             X           Y           Z
 ---------------------------------------------------------------------
      1          6           0       -0.956637    0.000000    0.000000
      2          7           0        0.956637    0.000000    0.000000
      3          1           0       -1.473786   -0.949961   -0.000349
      4          1           0        1.026931   -1.028800   -0.000500
      5          1           0       -1.381239    0.992418    0.000496
 ---------------------------------------------------------------------

 Alpha  occ. eigenvalues --  -14.81315 -10.65624  -0.89511  -0.76505  -0.55237
 Alpha  occ. eigenvalues --   -0.44615  -0.37649  -0.30877
 Alpha virt. eigenvalues --   -0.09513   0.00580   0.02166   0.04815   0.07816
 Alpha virt. eigenvalues --    0.08029   0.12863   0.15230   0.15899   0.17387
 Alpha virt. eigenvalues --    0.20771   0.22984   0.26769   0.41800   0.44193

  Beta  occ. eigenvalues --  -14.81315 -10.65624  -0.89511  -0.76505  -0.55237
  Beta  occ. eigenvalues --   -0.44615  -0.37649  -0.30877
  Beta virt. eigenvalues --   -0.09513   0.00580   0.02166   0.04815   0.07816
  Beta virt. eigenvalues --    0.08029   0.12863   0.15230   0.15899   0.17387
  Beta virt. eigenvalues --    0.20771   0.22984   0.26769   0.41800   0.44193

 Mulliken charges and spin densities:
               1          2
     1  C   -0.313407   0.000000
     2  N   -0.275968  -0.000000
     3  H    0.192230  -0.000000
     4  H    0.195820   0.000000
     5  H    0.201325  -0.000000
 Sum of Mulliken charges =  -0.00000   0.00000

 Dipole moment (field-independent basis, Debye):
    X=             -2.5538    Y=             -1.4665    Z=             -0.0006  Tot=              2.9449
 Quadrupole moment (field-independent basis, Debye-Ang):
   XX=            -12.3067   YY=            -11.4041   ZZ=            -15.5536
   XY=             -1.9267   XZ=             -0.0010   YZ=              0.0019

 Normal termination of Gaussian 16 at Mon Apr 21 18:21:26 2025.
