 Gaussian 16, Revision A.03,
 Gaussian 16:  ES64L-G16RevA.03 25-Dec-2016

 --------------------------------------------
 #p opt UM062X/6-311+G** nosymm int=superfine
 --------------------------------------------

 -------------------
 Title Card Required
 -------------------
 Symbolic Z-matrix:
 Charge =  0 Multiplicity = 3

 SCF Done:  E(UM062X) =  -50.6531929912     A.U. after    9 cycles
 SCF Done:  E(UM062X) =  -50.6531999380     A.U. after    7 cycles
 Optimization completed.
    -- Stationary point found.

                          Input orientation:
 ---------------------------------------------------------------------
 Center     Atomic      Atomic             Coordinates (Angstroms)
 Number     Number       Type             X           Y           Z
 ---------------------------------------------------------------------
      1          5           0       -1.028410    0.000000    0.000000
      2          5           0        1.028410    0.000000    0.000000
      3          1           0       -2.203691   -0.000080   -0.000000
      4          1           0        2.203691    0.000080    0.000000
 ---------------------------------------------------------------------

 Alpha  occ. eigenvalues --   -7.12912  -7.12890  -0.58807  -0.54918  -0.41096
 Alpha  occ. eigenvalues --   -0.23889  -0.23889
 Alpha virt. eigenvalues --   -0.03598  -0.03598   0.00846   0.02487   0.03683
 Alpha virt. eigenvalues --    0.06152   0.06152   0.07352   0.07794   0.07794
 Alpha virt. eigenvalues --    0.13692   0.22072   0.26369   0.37483   0.39439

  Beta  occ. eigenvalues --   -7.12664  -7.12646  -0.54744  -0.53018  -0.39255
  Beta virt. eigenvalues --   -0.06483  -0.06483   0.00599   0.00599   0.00793
  Beta virt. eigenvalues --    0.02925   0.05396   0.05968   0.09078   0.09078
  Beta virt. eigenvalues --    0.12096   0.12096   0.14007   0.23208   0.29405

 Mulliken charges and spin densities:
               1          2
     1  B   -0.102294   1.035059
     2  B   -0.102294   1.035059
     3  H    0.102294  -0.035059
     4  H    0.102294  -0.035059
 Sum of Mulliken charges =  -0.00000   2.00000

 Dipole moment (field-independent basis, Debye):
    X=             -0.0000    Y=             -0.0000    Z=              0.0000  Tot=              0.0000
 Quadrupole moment (field-independent basis, Debye-Ang):
   XX=            -11.1178   YY=            -15.8142   ZZ=            -15.8142
   XY=              0.0001   XZ=              0.0000   YZ=              0.0000

 1\1\GINC-NODE06\FOpt\UM062X\6-311+G(d,p)\B2H2(3)\SZHAO\21-Apr-2025\0\\
 #p opt UM062X/6-311+G** nosymm int=superfine\\Title Card Required\\0,3
 \B,-1.02841047,0.,0.\B,1.02841047,0.,0.\H,-2.2036908247,-0.0000804273,
 0.\H,2.2036908247,0.0000804273,0.\\Version=ES64L-G16RevA.03\HF=-50.653
 1999\S2=2.007934\S2-1=0.\S2A=2.00002\RMSD=5.634e-09\RMSF=1.638e-05\Dip
 ole=0.,0.,0.\Quadrupole=2.3277658,-1.1638829,-1.1638829,0.0001113,0.,0
 .\PG=C*V [C*(H1B1B1H1)]\\@

 Normal termination of Gaussian 16 at Mon Apr 21 17:27:43 2025.
