 Gaussian 16, Revision A.03,
 Gaussian 16:  ES64L-G16RevA.03 25-Dec-2016

 --------------------------------------------
 #p opt UM062X/6-311+G** nosymm int=superfine
 --------------------------------------------

 -------------------
 Title Card Required
 -------------------
 Symbolic Z-matrix:
 Charge =  0 Multiplicity = 1

 SCF Done:  E(UM062X) =  -379.836091164     A.U. after   11 cycles
 SCF Done:  E(UM062X) =  -379.836241137     A.U. after    9 cycles
 Optimization completed.
    -- Stationary point found.

                          Input orientation:
 ---------------------------------------------------------------------
 Center     Atomic      Atomic             Coordinates (Angstroms)
 Number     Number       Type             X           Y           Z
 ---------------------------------------------------------------------
      1          6           0       -1.015377    0.000000    0.000000
      2         15           0        1.015377    0.000000    0.000000
      3          1           0       -2.104254    0.000000    0.000000
 ---------------------------------------------------------------------

 Alpha  occ. eigenvalues --  -78.09323 -10.65797  -6.90847  -5.02255  -5.02171
 Alpha  occ. eigenvalues --   -5.02171  -0.75296  -0.63269  -0.42593  -0.29483
 Alpha  occ. eigenvalues --   -0.29483
 Alpha virt. eigenvalues --   -0.08334  -0.08334  -0.00582   0.01700   0.05195
 Alpha virt. eigenvalues --    0.05195   0.05687   0.07112   0.10431   0.10431
 Alpha virt. eigenvalues --    0.16159   0.21956   0.31369   0.32792   0.32792

  Beta  occ. eigenvalues --  -78.09323 -10.65797  -6.90847  -5.02255  -5.02171
  Beta  occ. eigenvalues --   -5.02171  -0.75296  -0.63269  -0.42593  -0.29483
  Beta  occ. eigenvalues --   -0.29483
  Beta virt. eigenvalues --   -0.08334  -0.08334  -0.00582   0.01700   0.05195
  Beta virt. eigenvalues --    0.05195   0.05687   0.07112   0.10431   0.10431
  Beta virt. eigenvalues --    0.16159   0.21956   0.31369   0.32792   0.32792

 Mulliken charges and spin densities:
               1          2
     1  C   -0.334307   0.000000
     2  P    0.113821  -0.000000
     3  H    0.220487   0.000000
 Sum of Mulliken charges =  -0.00000   0.00000

 Dipole moment (field-independent basis, Debye):
    X=             -0.3668    Y=              0.0000    Z=             -0.0000  Tot=              0.3668
 Quadrupole moment (field-independent basis, Debye-Ang):
   XX=            -14.0469   YY=            -22.0019   ZZ=            -22.0019
   XY=             -0.0000   XZ=             -0.0000   YZ=              0.0000

 Normal termination of Gaussian 16 at Mon Apr 21 19:28:39 2025.
