 Gaussian 16, Revision A.03,
 Gaussian 16:  ES64L-G16RevA.03 25-Dec-2016

 --------------------------------------------
 #p opt UM062X/6-311+G** nosymm int=superfine
 --------------------------------------------

 -------------------
 Title Card Required
 -------------------
 Symbolic Z-matrix:
 Charge =  1 Multiplicity = 2

 SCF Done:  E(UM062X) =  -80.1383254566     A.U. after   31 cycles
 SCF Done:  E(UM062X) =  -80.1390842794     A.U. after   10 cycles
 SCF Done:  E(UM062X) =  -80.1390860168     A.U. after    9 cycles
 Optimization completed.
    -- Stationary point found.

                          Input orientation:
 ---------------------------------------------------------------------
 Center     Atomic      Atomic             Coordinates (Angstroms)
 Number     Number       Type             X           Y           Z
 ---------------------------------------------------------------------
      1          5           0       -1.377734    0.000000    0.000000
      2          7           0        1.377734    0.000000    0.000000
      3          1           0       -2.578831   -0.000488    0.000000
      4          1           0        2.415104   -0.000382    0.000000
 ---------------------------------------------------------------------

 Alpha  occ. eigenvalues --  -15.01351  -7.52223  -1.07940  -0.87687  -0.69818
 Alpha  occ. eigenvalues --   -0.61888  -0.58068
 Alpha virt. eigenvalues --   -0.34480  -0.34248  -0.26584  -0.13997  -0.11007
 Alpha virt. eigenvalues --   -0.09684  -0.09306  -0.07431  -0.00744  -0.00586
 Alpha virt. eigenvalues --   -0.00046   0.05420   0.08442   0.16671   0.18279

  Beta  occ. eigenvalues --  -15.01106  -7.50970  -1.07296  -0.84215  -0.65785
  Beta  occ. eigenvalues --   -0.57710
  Beta virt. eigenvalues --   -0.37232  -0.31830  -0.31316  -0.26148  -0.14141
  Beta virt. eigenvalues --   -0.10615  -0.09321  -0.08891  -0.07268  -0.00583
  Beta virt. eigenvalues --   -0.00027   0.00105   0.05771   0.08239   0.15365

 Mulliken charges and spin densities:
               1          2
     1  B    0.675777   0.809938
     2  N   -0.210562   0.027908
     3  H    0.209295   0.136605
     4  H    0.325490   0.025549
 Sum of Mulliken charges =   1.00000   1.00000

 Dipole moment (field-independent basis, Debye):
    X=             -4.0887    Y=             -0.0010    Z=              0.0000  Tot=              4.0887
 Quadrupole moment (field-independent basis, Debye-Ang):
   XX=              8.3936   YY=            -10.3741   ZZ=            -10.3576
   XY=             -0.0010   XZ=             -0.0000   YZ=              0.0000

 Normal termination of Gaussian 16 at Mon Apr 21 17:57:43 2025.
