 Gaussian 16, Revision A.03,
 Gaussian 16:  ES64L-G16RevA.03 25-Dec-2016

 ---------------------------------------------------
 #p UM062X/6-311+G** force int=superfine pop=saveNBO
 ---------------------------------------------------

 -------------------
 Title Card Required
 -------------------
 Symbolic Z-matrix:
 Charge =  0 Multiplicity = 1

                         Standard orientation:
 ---------------------------------------------------------------------
 Center     Atomic      Atomic             Coordinates (Angstroms)
 Number     Number       Type             X           Y           Z
 ---------------------------------------------------------------------
      1         16           0        0.000000    0.000000    1.525200
      2         16           0        0.000000    0.000000   -1.525200
 ---------------------------------------------------------------------

 SCF Done:  E(UM062X) =  -796.121832356     A.U. after    9 cycles

 Unable to determine electronic state:  partially filled degenerate orbitals.
 Alpha  occ. eigenvalues --  -89.99287 -89.99287  -8.34959  -8.34958  -6.26990
 Alpha  occ. eigenvalues --   -6.26990  -6.26986  -6.26986  -6.26142  -6.26142
 Alpha  occ. eigenvalues --   -0.79613  -0.76483  -0.36760  -0.35756  -0.33636
 Alpha  occ. eigenvalues --   -0.33042
 Alpha virt. eigenvalues --   -0.22093  -0.17828   0.03111   0.03742   0.04942
 Alpha virt. eigenvalues --    0.05471   0.07273   0.07506   0.07729   0.13536
 Alpha virt. eigenvalues --    0.31655   0.31762   0.32702   0.36331   0.37240

  Beta  occ. eigenvalues --  -89.99287 -89.99287  -8.34959  -8.34958  -6.26990
  Beta  occ. eigenvalues --   -6.26990  -6.26986  -6.26986  -6.26142  -6.26142
  Beta  occ. eigenvalues --   -0.79613  -0.76483  -0.36760  -0.35756  -0.33636
  Beta  occ. eigenvalues --   -0.33042
  Beta virt. eigenvalues --   -0.22093  -0.17828   0.03111   0.03742   0.04942
  Beta virt. eigenvalues --    0.05471   0.07273   0.07506   0.07729   0.13536
  Beta virt. eigenvalues --    0.31655   0.31762   0.32702   0.36331   0.37240

 Mulliken charges and spin densities:
               1          2
     1  S   -0.000000   0.000000
     2  S   -0.000000   0.000000
 Sum of Mulliken charges =  -0.00000   0.00000

 Dipole moment (field-independent basis, Debye):
    X=              0.0000    Y=              0.0000    Z=              0.0000  Tot=              0.0000
 Quadrupole moment (field-independent basis, Debye-Ang):
   XX=            -25.3508   YY=            -30.2470   ZZ=            -22.7674
   XY=              0.0000   XZ=             -0.0000   YZ=              0.0000

 Summary of Natural Population Analysis:

                                       Natural Population
                Natural  -----------------------------------------------
    Atom  No    Charge         Core      Valence    Rydberg      Total
 -----------------------------------------------------------------------
      S    1    0.00000      4.99999     2.99887    0.00114     8.00000
      S    2    0.00000      4.99999     2.99887    0.00114     8.00000
 =======================================================================
   * Total *    0.00000      9.99999     5.99773    0.00228    16.00000

 Normal termination of Gaussian 16 at Mon Apr 21 20:03:23 2025.
