 Gaussian 16, Revision A.03,
 Gaussian 16:  ES64L-G16RevA.03 25-Dec-2016

 --------------------------------------------
 #p opt UM062X/6-311+G** nosymm int=superfine
 --------------------------------------------

 -------------------
 Title Card Required
 -------------------
 Symbolic Z-matrix:
 Charge =  0 Multiplicity = 1

 SCF Done:  E(UM062X) =  -110.226937051     A.U. after   13 cycles
 SCF Done:  E(UM062X) =  -110.233523588     A.U. after   12 cycles
 SCF Done:  E(UM062X) =  -110.239040637     A.U. after   14 cycles
 SCF Done:  E(UM062X) =  -110.239059463     A.U. after   11 cycles
 Optimization completed.
    -- Stationary point found.

                          Input orientation:
 ---------------------------------------------------------------------
 Center     Atomic      Atomic             Coordinates (Angstroms)
 Number     Number       Type             X           Y           Z
 ---------------------------------------------------------------------
      1          7           0       -1.415428    0.000000    0.000000
      2          7           0        1.415428    0.000000    0.000000
      3          1           0       -1.245159   -1.024136   -0.000000
      4          1           0        1.245159    1.024136   -0.000000
 ---------------------------------------------------------------------

 Alpha  occ. eigenvalues --  -14.88822 -14.88818  -0.93341  -0.91568  -0.49413
 Alpha  occ. eigenvalues --   -0.48383  -0.33848  -0.31263
 Alpha virt. eigenvalues --   -0.20112  -0.17282   0.05545   0.07407   0.10667
 Alpha virt. eigenvalues --    0.11884   0.13364   0.14815   0.15793   0.18759
 Alpha virt. eigenvalues --    0.19682   0.23600   0.52081   0.55436   0.70185

  Beta  occ. eigenvalues --  -14.88822 -14.88818  -0.93341  -0.91568  -0.49413
  Beta  occ. eigenvalues --   -0.48383  -0.33848  -0.31263
  Beta virt. eigenvalues --   -0.20112  -0.17282   0.05545   0.07407   0.10667
  Beta virt. eigenvalues --    0.11884   0.13364   0.14815   0.15793   0.18759
  Beta virt. eigenvalues --    0.19682   0.23600   0.52081   0.55436   0.70185

 Mulliken charges and spin densities:
               1          2
     1  N   -0.242666   0.000000
     2  N   -0.242666  -0.000000
     3  H    0.242666  -0.000000
     4  H    0.242666   0.000000
 Sum of Mulliken charges =  -0.00000  -0.00000

 Dipole moment (field-independent basis, Debye):
    X=              0.0000    Y=              0.0000    Z=             -0.0000  Tot=              0.0000
 Quadrupole moment (field-independent basis, Debye-Ang):
   XX=            -13.9673   YY=            -11.0938   ZZ=            -14.1837
   XY=              4.8218   XZ=              0.0000   YZ=              0.0000

 Normal termination of Gaussian 16 at Thu May 15 15:38:26 2025.
