 Gaussian 16, Revision A.03,
 Gaussian 16:  ES64L-G16RevA.03 25-Dec-2016

 ---------------------------------------
 #p UM062X/6-311+G** force int=superfine
 ---------------------------------------

 -------------------
 Title Card Required
 -------------------
 Symbolic Z-matrix:
 Charge =  1 Multiplicity = 2

                         Standard orientation:
 ---------------------------------------------------------------------
 Center     Atomic      Atomic             Coordinates (Angstroms)
 Number     Number       Type             X           Y           Z
 ---------------------------------------------------------------------
      1          6           0       -0.000000    0.565514    0.000000
      2          6           0        0.000000   -0.565514   -0.000000
      3          1           0        0.847318    1.317275   -0.000000
      4          1           0       -0.863460    1.302920    0.000000
      5          1           0       -0.847318   -1.317275    0.000000
      6          1           0        0.863460   -1.302920   -0.000000
 ---------------------------------------------------------------------

 SCF Done:  E(UM062X) =  -78.0717074897     A.U. after   10 cycles

 The electronic state is 2-AG.
 Alpha  occ. eigenvalues --  -10.83232 -10.82781  -1.21270  -0.97695  -0.85724
 Alpha  occ. eigenvalues --   -0.85002  -0.68279  -0.67388
 Alpha virt. eigenvalues --   -0.19663  -0.15554  -0.15093  -0.13823  -0.10114
 Alpha virt. eigenvalues --   -0.08637  -0.07409  -0.06956  -0.03356  -0.03054
 Alpha virt. eigenvalues --   -0.00356   0.02060   0.11707   0.15929   0.21012

  Beta  occ. eigenvalues --  -10.83217 -10.82752  -1.19915  -0.92919  -0.82784
  Beta  occ. eigenvalues --   -0.79242  -0.66981
  Beta virt. eigenvalues --   -0.47526  -0.19267  -0.15017  -0.14697  -0.13635
  Beta virt. eigenvalues --   -0.09975  -0.08540  -0.05524  -0.05424  -0.02792
  Beta virt. eigenvalues --   -0.02786   0.00009   0.02761   0.12167   0.15973

 Mulliken charges and spin densities:
               1          2
     1  C   -0.161374   0.125750
     2  C   -0.161374   0.125750
     3  H    0.330470   0.183687
     4  H    0.330904   0.190563
     5  H    0.330470   0.183687
     6  H    0.330904   0.190563
 Sum of Mulliken charges =   1.00000   1.00000

 Dipole moment (field-independent basis, Debye):
    X=             -0.0000    Y=             -0.0000    Z=             -0.0000  Tot=              0.0000
 Quadrupole moment (field-independent basis, Debye-Ang):
   XX=             -7.4305   YY=             -2.1422   ZZ=            -13.0158
   XY=             -0.0412   XZ=             -0.0000   YZ=              0.0000

 Normal termination of Gaussian 16 at Tue Nov 19 11:52:58 2024.
