 Gaussian 16, Revision A.03,
 Gaussian 16:  ES64L-G16RevA.03 25-Dec-2016

 --------------------------------------------
 #p opt UM062X/6-311+G** nosymm int=superfine
 --------------------------------------------

 -------------------
 Title Card Required
 -------------------
 Symbolic Z-matrix:
 Charge =  0 Multiplicity = 1

 SCF Done:  E(UM062X) =  -114.423452178     A.U. after   10 cycles
 SCF Done:  E(UM062X) =  -114.424995342     A.U. after    9 cycles
 SCF Done:  E(UM062X) =  -114.425211459     A.U. after    9 cycles
 SCF Done:  E(UM062X) =  -114.425212046     A.U. after    8 cycles
 SCF Done:  E(UM062X) =  -114.425172410     A.U. after    9 cycles
 SCF Done:  E(UM062X) =  -114.425212161     A.U. after    9 cycles
 Optimization completed.
    -- Stationary point found.

                          Input orientation:
 ---------------------------------------------------------------------
 Center     Atomic      Atomic             Coordinates (Angstroms)
 Number     Number       Type             X           Y           Z
 ---------------------------------------------------------------------
      1          6           0       -0.723311    0.000000    0.000000
      2          8           0        0.723311    0.000000    0.000000
      3          1           0       -1.230130   -0.960629   -0.000300
      4          1           0       -1.230144    0.960621   -0.000303
 ---------------------------------------------------------------------

 Alpha  occ. eigenvalues --  -19.66155 -10.67516  -1.08400  -0.76586  -0.57357
 Alpha  occ. eigenvalues --   -0.49324  -0.40922  -0.36445
 Alpha virt. eigenvalues --   -0.06716   0.01525   0.04320   0.04367   0.06685
 Alpha virt. eigenvalues --    0.14765   0.19936   0.21121   0.22421   0.24215
 Alpha virt. eigenvalues --    0.26383   0.33107   0.43904   0.49374   0.54869

  Beta  occ. eigenvalues --  -19.66155 -10.67516  -1.08400  -0.76586  -0.57357
  Beta  occ. eigenvalues --   -0.49324  -0.40922  -0.36445
  Beta virt. eigenvalues --   -0.06716   0.01525   0.04320   0.04367   0.06685
  Beta virt. eigenvalues --    0.14765   0.19936   0.21121   0.22421   0.24215
  Beta virt. eigenvalues --    0.26383   0.33107   0.43904   0.49374   0.54869

 Mulliken charges and spin densities:
               1          2
     1  C   -0.055033  -0.000000
     2  O   -0.294996   0.000000
     3  H    0.175014   0.000000
     4  H    0.175015   0.000000
 Sum of Mulliken charges =  -0.00000   0.00000

 Dipole moment (field-independent basis, Debye):
    X=             -3.4539    Y=             -0.0000    Z=             -0.0004  Tot=              3.4539
 Quadrupole moment (field-independent basis, Debye-Ang):
   XX=            -11.4509   YY=            -11.3771   ZZ=            -12.4130
   XY=             -0.0000   XZ=              0.0004   YZ=             -0.0000

 Normal termination of Gaussian 16 at Mon Apr 21 18:42:31 2025.
