 Gaussian 16, Revision A.03,
 Gaussian 16:  ES64L-G16RevA.03 25-Dec-2016

 ---------------------------------------
 #p UM062X/6-311+G** force int=superfine
 ---------------------------------------

 -------------------
 Title Card Required
 -------------------
 Symbolic Z-matrix:
 Charge =  1 Multiplicity = 2

                         Standard orientation:
 ---------------------------------------------------------------------
 Center     Atomic      Atomic             Coordinates (Angstroms)
 Number     Number       Type             X           Y           Z
 ---------------------------------------------------------------------
      1          7           0        0.000000    0.000000    1.280391
      2          7           0        0.000000    0.000000   -1.280391
 ---------------------------------------------------------------------

 SCF Done:  E(UM062X) =  -108.438384838     A.U. after   11 cycles

 Unable to determine electronic state:  partially filled degenerate orbitals.
 Alpha  occ. eigenvalues --  -15.35143 -15.35134  -1.24213  -1.20775  -0.71301
 Alpha  occ. eigenvalues --   -0.70388  -0.67776
 Alpha virt. eigenvalues --   -0.58042  -0.55375  -0.51895  -0.12956  -0.08794
 Alpha virt. eigenvalues --   -0.08628  -0.08579  -0.03223  -0.03057  -0.02809
 Alpha virt. eigenvalues --    0.04820   0.42851   0.46367   0.47723   0.53648

  Beta  occ. eigenvalues --  -15.34663 -15.34657  -1.20443  -1.17201  -0.69521
  Beta  occ. eigenvalues --   -0.66037
  Beta virt. eigenvalues --   -0.53550  -0.49988  -0.47563  -0.45549  -0.14233
  Beta virt. eigenvalues --   -0.09155  -0.09113  -0.08790  -0.03807  -0.03096
  Beta virt. eigenvalues --   -0.03063   0.03356   0.43284   0.47812   0.47903

 Mulliken charges and spin densities:
               1          2
     1  N    0.500000   0.500000
     2  N    0.500000   0.500000
 Sum of Mulliken charges =   1.00000   1.00000

 Dipole moment (field-independent basis, Debye):
    X=              0.0000    Y=              0.0000    Z=             -0.0000  Tot=              0.0000
 Quadrupole moment (field-independent basis, Debye-Ang):
   XX=             -8.5533   YY=            -10.0073   ZZ=             -0.4240
   XY=              0.0000   XZ=             -0.0000   YZ=              0.0000

 Optimization completed.
    -- Stationary point found.
 Normal termination of Gaussian 16 at Wed Feb 26 13:54:12 2025.
