 Gaussian 16, Revision A.03,
 Gaussian 16:  ES64L-G16RevA.03 25-Dec-2016

 ---------------------------------------------------
 #p UM062X/6-311+G** force int=superfine pop=saveNBO
 ---------------------------------------------------

 -------------------
 Title Card Required
 -------------------
 Symbolic Z-matrix:
 Charge =  0 Multiplicity = 1

                         Standard orientation:
 ---------------------------------------------------------------------
 Center     Atomic      Atomic             Coordinates (Angstroms)
 Number     Number       Type             X           Y           Z
 ---------------------------------------------------------------------
      1         16           0        0.000000    0.000000    1.200200
      2         16           0        0.000000    0.000000   -1.200200
 ---------------------------------------------------------------------

 SCF Done:  E(UM062X) =  -796.235980378     A.U. after    9 cycles

 Unable to determine electronic state:  partially filled degenerate orbitals.
 Alpha  occ. eigenvalues --  -89.98261 -89.98261  -8.34008  -8.34004  -6.26076
 Alpha  occ. eigenvalues --   -6.26076  -6.26010  -6.26005  -6.25216  -6.25216
 Alpha  occ. eigenvalues --   -0.83523  -0.73592  -0.41352  -0.37685  -0.36122
 Alpha  occ. eigenvalues --   -0.31288
 Alpha virt. eigenvalues --   -0.19052  -0.09316   0.03150   0.04195   0.04831
 Alpha virt. eigenvalues --    0.05508   0.07281   0.07538   0.08073   0.14453
 Alpha virt. eigenvalues --    0.31748   0.32742   0.33852   0.33954   0.35989

  Beta  occ. eigenvalues --  -89.98261 -89.98261  -8.34008  -8.34004  -6.26076
  Beta  occ. eigenvalues --   -6.26076  -6.26010  -6.26005  -6.25216  -6.25216
  Beta  occ. eigenvalues --   -0.83523  -0.73592  -0.41352  -0.37685  -0.36122
  Beta  occ. eigenvalues --   -0.31288
  Beta virt. eigenvalues --   -0.19052  -0.09316   0.03150   0.04195   0.04831
  Beta virt. eigenvalues --    0.05508   0.07281   0.07538   0.08073   0.14453
  Beta virt. eigenvalues --    0.31748   0.32742   0.33852   0.33954   0.35989

 Mulliken charges and spin densities:
               1          2
     1  S    0.000000   0.000000
     2  S    0.000000   0.000000
 Sum of Mulliken charges =   0.00000   0.00000

 Dipole moment (field-independent basis, Debye):
    X=              0.0000    Y=             -0.0000    Z=             -0.0000  Tot=              0.0000
 Quadrupole moment (field-independent basis, Debye-Ang):
   XX=            -29.7278   YY=            -24.7900   ZZ=            -23.8768
   XY=              0.0000   XZ=              0.0000   YZ=              0.0000

 Summary of Natural Population Analysis:

                                       Natural Population
                Natural  -----------------------------------------------
    Atom  No    Charge         Core      Valence    Rydberg      Total
 -----------------------------------------------------------------------
      S    1    0.00000      4.99997     2.99425    0.00579     8.00000
      S    2    0.00000      4.99997     2.99425    0.00579     8.00000
 =======================================================================
   * Total *    0.00000      9.99993     5.98849    0.01157    16.00000

 Normal termination of Gaussian 16 at Mon Apr 21 20:02:57 2025.
