 Gaussian 16, Revision A.03,
 Gaussian 16:  ES64L-G16RevA.03 25-Dec-2016

 --------------------------------------------
 #p opt UM062X/6-311+G** nosymm int=superfine
 --------------------------------------------

 -------------------
 Title Card Required
 -------------------
 Symbolic Z-matrix:
 Charge =  1 Multiplicity = 2

 SCF Done:  E(UM062X) =  -92.7772143251     A.U. after   19 cycles
 SCF Done:  E(UM062X) =  -92.7773567608     A.U. after   16 cycles
 Optimization completed.
    -- Stationary point found.

                          Input orientation:
 ---------------------------------------------------------------------
 Center     Atomic      Atomic             Coordinates (Angstroms)
 Number     Number       Type             X           Y           Z
 ---------------------------------------------------------------------
      1          6           0       -0.801540    0.000000    0.000000
      2          7           0        0.801540    0.000000    0.000000
      3          1           0       -1.910954    0.000000   -0.000000
 ---------------------------------------------------------------------

 Alpha  occ. eigenvalues --  -15.24897 -11.08517  -1.27255  -1.06229  -0.81889
 Alpha  occ. eigenvalues --   -0.73685  -0.69856
 Alpha virt. eigenvalues --   -0.43033  -0.40181  -0.28445  -0.16095  -0.10790
 Alpha virt. eigenvalues --   -0.10384  -0.10158  -0.04987  -0.01651  -0.01338
 Alpha virt. eigenvalues --    0.03025   0.07534   0.26208   0.28824   0.29093

  Beta  occ. eigenvalues --  -15.24587 -11.08185  -1.23057  -1.04146  -0.80312
  Beta  occ. eigenvalues --   -0.69383
  Beta virt. eigenvalues --   -0.47734  -0.38631  -0.33470  -0.26639  -0.16961
  Beta virt. eigenvalues --   -0.10741  -0.10678  -0.10311  -0.05328  -0.02331
  Beta virt. eigenvalues --   -0.01858   0.03078   0.06602   0.26373   0.27282

 Mulliken charges and spin densities:
               1          2
     1  C    0.271337   0.571199
     2  N    0.360332   0.447178
     3  H    0.368330  -0.018377
 Sum of Mulliken charges =   1.00000   1.00000

 Dipole moment (field-independent basis, Debye):
    X=             -3.9828    Y=             -0.0000    Z=             -0.0000  Tot=              3.9828
 Quadrupole moment (field-independent basis, Debye-Ang):
   XX=             -1.5812   YY=             -9.4237   ZZ=            -10.5538
   XY=              0.0000   XZ=              0.0000   YZ=             -0.6266

 Normal termination of Gaussian 16 at Mon Apr 21 18:32:13 2025.
