 Gaussian 16, Revision A.03,
 Gaussian 16:  ES64L-G16RevA.03 25-Dec-2016

 --------------------------------
 #p UM062X/6-311+G** Pop=NBO Read
 --------------------------------

 ------------
 NBO Analysis
 ------------
 Symbolic Z-matrix:
 Charge =  0 Multiplicity = 1

                         Standard orientation:
 ---------------------------------------------------------------------
 Center     Atomic      Atomic             Coordinates (Angstroms)
 Number     Number       Type             X           Y           Z
 ---------------------------------------------------------------------
      1          6           0        0.000000    0.000000   -0.641237
      2          8           0        0.000000    0.000000    0.480927
 ---------------------------------------------------------------------

 SCF Done:  E(UM062X) =  -113.279857010     A.U. after    9 cycles

 The electronic state is 1-SG.
 Alpha  occ. eigenvalues --  -19.75568 -10.67237  -1.29997  -0.67461  -0.55849
 Alpha  occ. eigenvalues --   -0.55849  -0.44876
 Alpha virt. eigenvalues --    0.01181   0.01181   0.03525   0.06904   0.08656
 Alpha virt. eigenvalues --    0.08656   0.19977   0.23031   0.23031   0.29151
 Alpha virt. eigenvalues --    0.46834   0.69178   0.69178   0.81242   1.08219

  Beta  occ. eigenvalues --  -19.75568 -10.67237  -1.29997  -0.67461  -0.55849
  Beta  occ. eigenvalues --   -0.55849  -0.44876
  Beta virt. eigenvalues --    0.01181   0.01181   0.03525   0.06904   0.08656
  Beta virt. eigenvalues --    0.08656   0.19977   0.23031   0.23031   0.29151
  Beta virt. eigenvalues --    0.46834   0.69178   0.69178   0.81242   1.08219

 Mulliken charges and spin densities:
               1          2
     1  C    0.028273   0.000000
     2  O   -0.028273   0.000000
 Sum of Mulliken charges =  -0.00000   0.00000

 Dipole moment (field-independent basis, Debye):
    X=              0.0000    Y=              0.0000    Z=              0.0450  Tot=              0.0450
 Quadrupole moment (field-independent basis, Debye-Ang):
   XX=            -10.2691   YY=            -10.2691   ZZ=            -12.3343
   XY=              0.0000   XZ=              0.0000   YZ=              0.0000

 Summary of Natural Population Analysis:

                                       Natural Population
                Natural  -----------------------------------------------
    Atom  No    Charge         Core      Valence    Rydberg      Total
 -----------------------------------------------------------------------
      C    1    0.25054      0.99991     1.72196    0.02759     2.74946
      O    2   -0.25054      0.99989     3.24064    0.01002     4.25054
 =======================================================================
   * Total *    0.00000      1.99980     4.96260    0.03760     7.00000

 Normal termination of Gaussian 16 at Wed Apr 16 03:11:33 2025.
