 Gaussian 16, Revision A.03,
 Gaussian 16:  ES64L-G16RevA.03 25-Dec-2016

 ---------------------------------------
 #p UM062X/6-311+G** force int=superfine
 ---------------------------------------

 -------------------
 Title Card Required
 -------------------
 Symbolic Z-matrix:
 Charge =  1 Multiplicity = 2

                         Standard orientation:
 ---------------------------------------------------------------------
 Center     Atomic      Atomic             Coordinates (Angstroms)
 Number     Number       Type             X           Y           Z
 ---------------------------------------------------------------------
      1          6           0        0.000000    0.940166    0.000000
      2          6           0       -0.000000   -0.940166    0.000000
      3          1           0        0.972176    1.421101   -0.000000
      4          1           0       -0.972089    1.421138    0.000000
      5          1           0       -0.972176   -1.421101    0.000000
      6          1           0        0.972089   -1.421138   -0.000000
 ---------------------------------------------------------------------

 SCF Done:  E(UM062X) =  -78.0977603789     A.U. after    9 cycles

 The electronic state is 2-AU.
 Alpha  occ. eigenvalues --  -10.91896 -10.91876  -1.08531  -0.99644  -0.81271
 Alpha  occ. eigenvalues --   -0.76796  -0.70037  -0.58120
 Alpha virt. eigenvalues --   -0.35340  -0.20049  -0.14289  -0.11173  -0.09492
 Alpha virt. eigenvalues --   -0.08624  -0.07379  -0.07308  -0.04732  -0.04340
 Alpha virt. eigenvalues --   -0.02173  -0.01050   0.02381   0.09545   0.18233

  Beta  occ. eigenvalues --  -10.91665 -10.91652  -1.05300  -0.97478  -0.80639
  Beta  occ. eigenvalues --   -0.76445  -0.68654
  Beta virt. eigenvalues --   -0.36615  -0.26949  -0.17722  -0.15748  -0.11542
  Beta virt. eigenvalues --   -0.09218  -0.08304  -0.07849  -0.07345  -0.04374
  Beta virt. eigenvalues --   -0.03991  -0.01756  -0.00439   0.01672   0.10173

 Mulliken charges and spin densities:
               1          2
     1  C   -0.065331   0.540604
     2  C   -0.065331   0.540604
     3  H    0.282668  -0.020303
     4  H    0.282663  -0.020301
     5  H    0.282668  -0.020303
     6  H    0.282663  -0.020301
 Sum of Mulliken charges =   1.00000   1.00000

 Dipole moment (field-independent basis, Debye):
    X=              0.0000    Y=              0.0000    Z=              0.0000  Tot=              0.0000
 Quadrupole moment (field-independent basis, Debye-Ang):
   XX=             -8.2317   YY=             -3.0147   ZZ=            -12.3228
   XY=              0.0001   XZ=             -0.0000   YZ=             -0.0000

 Normal termination of Gaussian 16 at Tue Nov 19 11:55:55 2024.
