 Gaussian 16, Revision A.03,
 Gaussian 16:  ES64L-G16RevA.03 25-Dec-2016

 --------------------------------------------
 #p opt UM062X/6-311+G** nosymm int=superfine
 --------------------------------------------

 -------------------
 Title Card Required
 -------------------
 Symbolic Z-matrix:
 Charge = -1 Multiplicity = 2

 SCF Done:  E(UM062X) =  -52.0426525349     A.U. after   11 cycles
 SCF Done:  E(UM062X) =  -52.0426682550     A.U. after    8 cycles
 SCF Done:  E(UM062X) =  -52.0426722049     A.U. after    9 cycles
 SCF Done:  E(UM062X) =  -52.0426722499     A.U. after    8 cycles
 SCF Done:  E(UM062X) =  -52.0426724005     A.U. after    8 cycles
 Optimization completed.
    -- Stationary point found.

                          Input orientation:
 ---------------------------------------------------------------------
 Center     Atomic      Atomic             Coordinates (Angstroms)
 Number     Number       Type             X           Y           Z
 ---------------------------------------------------------------------
      1          5           0       -0.847274    0.000000    0.000000
      2          5           0        0.847274    0.000000    0.000000
      3          1           0       -1.511121   -1.018785    0.000245
      4          1           0        1.511121    1.018785   -0.000235
      5          1           0       -1.511121    1.018785   -0.000242
      6          1           0        1.511121   -1.018785    0.000237
 ---------------------------------------------------------------------

 Alpha  occ. eigenvalues --   -6.79052  -6.79000  -0.37969  -0.29917  -0.19740
 Alpha  occ. eigenvalues --   -0.14108  -0.11743  -0.01327
 Alpha virt. eigenvalues --    0.15698   0.17020   0.19170   0.19172   0.19285
 Alpha virt. eigenvalues --    0.22175   0.22686   0.26913   0.27609   0.34476
 Alpha virt. eigenvalues --    0.36228   0.39151   0.43379   0.45317   0.52444

  Beta  occ. eigenvalues --   -6.79020  -6.78975  -0.35614  -0.28787  -0.19244
  Beta  occ. eigenvalues --   -0.14054  -0.10982
  Beta virt. eigenvalues --    0.11694   0.14970   0.15537   0.17621   0.17909
  Beta virt. eigenvalues --    0.18842   0.19061   0.23122   0.23506   0.31168
  Beta virt. eigenvalues --    0.33716   0.36219   0.38312   0.43394   0.45410

 Mulliken charges and spin densities:
               1          2
     1  B   -0.339633   0.544925
     2  B   -0.339633   0.544925
     3  H   -0.080184  -0.022462
     4  H   -0.080184  -0.022462
     5  H   -0.080184  -0.022462
     6  H   -0.080184  -0.022462
 Sum of Mulliken charges =  -1.00000   1.00000

 Dipole moment (field-independent basis, Debye):
    X=              0.0000    Y=              0.0000    Z=             -0.0000  Tot=              0.0000
 Quadrupole moment (field-independent basis, Debye-Ang):
   XX=            -28.4402   YY=            -23.1469   ZZ=            -21.3854
   XY=             -0.0000   XZ=              0.0000   YZ=              0.0004

 Normal termination of Gaussian 16 at Mon Apr 21 17:15:25 2025.
