 Gaussian 16, Revision A.03,
 Gaussian 16:  ES64L-G16RevA.03 25-Dec-2016

 --------------------------------------------
 #p opt UM062X/6-311+G** nosymm int=superfine
 --------------------------------------------

 -------------------
 Title Card Required
 -------------------
 Symbolic Z-matrix:
 Charge = -1 Multiplicity = 2

 SCF Done:  E(UM062X) =  -50.6430794103     A.U. after   14 cycles
 SCF Done:  E(UM062X) =  -50.6430825874     A.U. after    8 cycles
 Optimization completed.
    -- Stationary point found.

                          Input orientation:
 ---------------------------------------------------------------------
 Center     Atomic      Atomic             Coordinates (Angstroms)
 Number     Number       Type             X           Y           Z
 ---------------------------------------------------------------------
      1          5           0       -1.091404    0.000000    0.000000
      2          5           0        1.091404    0.000000    0.000000
      3          1           0       -2.273319   -0.000903   -0.000000
      4          1           0        2.273319    0.000903    0.000000
 ---------------------------------------------------------------------

 Alpha  occ. eigenvalues --   -6.91331  -6.91316  -0.36767  -0.34299  -0.17388
 Alpha  occ. eigenvalues --   -0.01772  -0.00526
 Alpha virt. eigenvalues --    0.13833   0.15018   0.15317   0.15437   0.20259
 Alpha virt. eigenvalues --    0.20353   0.21352   0.21541   0.22906   0.23386
 Alpha virt. eigenvalues --    0.26426   0.37857   0.41651   0.55979   0.58816

  Beta  occ. eigenvalues --   -6.91285  -6.91275  -0.35039  -0.33380  -0.16152
  Beta  occ. eigenvalues --    0.01168
  Beta virt. eigenvalues --    0.10545   0.13901   0.14166   0.15089   0.16124
  Beta virt. eigenvalues --    0.19126   0.20563   0.20665   0.20709   0.24404
  Beta virt. eigenvalues --    0.25338   0.25468   0.38066   0.41848   0.55527

 Mulliken charges and spin densities:
               1          2
     1  B   -0.515730   0.526195
     2  B   -0.515730   0.526195
     3  H    0.015730  -0.026195
     4  H    0.015730  -0.026195
 Sum of Mulliken charges =  -1.00000   1.00000

 Dipole moment (field-independent basis, Debye):
    X=              0.0000    Y=              0.0000    Z=              0.0000  Tot=              0.0000
 Quadrupole moment (field-independent basis, Debye-Ang):
   XX=            -23.6143   YY=            -30.6037   ZZ=            -23.4150
   XY=              0.0074   XZ=              0.0000   YZ=             -0.0000

 Normal termination of Gaussian 16 at Mon Apr 21 17:30:42 2025.
