 Gaussian 16, Revision A.03,
 Gaussian 16:  ES64L-G16RevA.03 25-Dec-2016

 ---------------------------------------------------
 #p UM062X/6-311+G** force int=superfine pop=saveNBO
 ---------------------------------------------------

 -------------------
 Title Card Required
 -------------------
 Symbolic Z-matrix:
 Charge =  0 Multiplicity = 1

                         Standard orientation:
 ---------------------------------------------------------------------
 Center     Atomic      Atomic             Coordinates (Angstroms)
 Number     Number       Type             X           Y           Z
 ---------------------------------------------------------------------
      1          8           0        0.000000    0.000000    1.868562
      2          8           0        0.000000    0.000000   -1.868562
 ---------------------------------------------------------------------

 SCF Done:  E(UM062X) =  -149.771498987     A.U. after   10 cycles

 Unable to determine electronic state:  partially filled degenerate orbitals.
 Alpha  occ. eigenvalues --  -19.82269 -19.82267  -1.10088  -1.09815  -0.48412
 Alpha  occ. eigenvalues --   -0.48311  -0.39633  -0.39099
 Alpha virt. eigenvalues --   -0.31448  -0.30819   0.09032   0.12434   0.14478
 Alpha virt. eigenvalues --    0.14549   0.17146   0.18828   0.19051   0.27789
 Alpha virt. eigenvalues --    0.99721   1.00388   1.01000   1.01443   1.02758

  Beta  occ. eigenvalues --  -19.82269 -19.82267  -1.10088  -1.09815  -0.48412
  Beta  occ. eigenvalues --   -0.48311  -0.39633  -0.39099
  Beta virt. eigenvalues --   -0.31448  -0.30819   0.09032   0.12434   0.14478
  Beta virt. eigenvalues --    0.14549   0.17146   0.18828   0.19051   0.27789
  Beta virt. eigenvalues --    0.99721   1.00388   1.01000   1.01443   1.02758

 Mulliken charges and spin densities:
               1          2
     1  O   -0.000000  -0.000000
     2  O   -0.000000  -0.000000
 Sum of Mulliken charges =  -0.00000  -0.00000

 Dipole moment (field-independent basis, Debye):
    X=             -0.0000    Y=              0.0000    Z=              0.0000  Tot=              0.0000
 Quadrupole moment (field-independent basis, Debye-Ang):
   XX=            -10.1611   YY=            -12.0472   ZZ=             -9.3965
   XY=             -0.0000   XZ=             -0.0000   YZ=              0.0000

 Summary of Natural Population Analysis:

                                       Natural Population
                Natural  -----------------------------------------------
    Atom  No    Charge         Core      Valence    Rydberg      Total
 -----------------------------------------------------------------------
      O    1   -0.00000      1.00000     2.99890    0.00110     4.00000
      O    2   -0.00000      1.00000     2.99890    0.00110     4.00000
 =======================================================================
   * Total *   -0.00000      2.00000     5.99780    0.00220     8.00000

 Normal termination of Gaussian 16 at Mon Apr 21 19:53:47 2025.
