 Gaussian 16, Revision A.03,
 Gaussian 16:  ES64L-G16RevA.03 25-Dec-2016

 --------------------------------------------
 #p opt UM062X/6-311+G** nosymm int=superfine
 --------------------------------------------

 -------------------
 Title Card Required
 -------------------
 Symbolic Z-matrix:
 Charge =  0 Multiplicity = 1

 SCF Done:  E(UM062X) =  -115.544420307     A.U. after   12 cycles
 SCF Done:  E(UM062X) =  -115.558972614     A.U. after   11 cycles
 SCF Done:  E(UM062X) =  -115.564432669     A.U. after   11 cycles
 SCF Done:  E(UM062X) =  -115.564481575     A.U. after    9 cycles
 SCF Done:  E(UM062X) =  -115.564501946     A.U. after    9 cycles
 SCF Done:  E(UM062X) =  -115.564503403     A.U. after    9 cycles
 SCF Done:  E(UM062X) =  -115.564504075     A.U. after    8 cycles
 Optimization completed.
    -- Stationary point found.

                          Input orientation:
 ---------------------------------------------------------------------
 Center     Atomic      Atomic             Coordinates (Angstroms)
 Number     Number       Type             X           Y           Z
 ---------------------------------------------------------------------
      1          6           0       -1.207203    0.000000    0.000000
      2          8           0        1.207203    0.000000    0.000000
      3          1           0        1.277156   -0.962764    0.000220
      4          1           0       -1.348477   -0.525566    0.933814
      5          1           0       -1.251497    1.079286   -0.000786
      6          1           0       -1.348548   -0.526929   -0.933036
 ---------------------------------------------------------------------

 Alpha  occ. eigenvalues --  -19.60469 -10.64593  -1.02875  -0.82228  -0.54240
 Alpha  occ. eigenvalues --   -0.54034  -0.47079  -0.34055  -0.33735
 Alpha virt. eigenvalues --   -0.09458   0.00959   0.04434   0.04930   0.06605
 Alpha virt. eigenvalues --    0.14598   0.16517   0.16738   0.20237   0.22891
 Alpha virt. eigenvalues --    0.23160   0.24375   0.32773   0.40464   0.41209

  Beta  occ. eigenvalues --  -19.60469 -10.64593  -1.02875  -0.82228  -0.54240
  Beta  occ. eigenvalues --   -0.54034  -0.47079  -0.34055  -0.33735
  Beta virt. eigenvalues --   -0.09458   0.00959   0.04434   0.04930   0.06605
  Beta virt. eigenvalues --    0.14598   0.16517   0.16738   0.20237   0.22891
  Beta virt. eigenvalues --    0.23160   0.24375   0.32773   0.40464   0.41209

 Mulliken charges and spin densities:
               1          2
     1  C   -0.298222   0.000000
     2  O   -0.533280  -0.000000
     3  H    0.220095   0.000000
     4  H    0.198022  -0.000000
     5  H    0.215380  -0.000000
     6  H    0.198004  -0.000000
 Sum of Mulliken charges =  -0.00000  -0.00000

 Dipole moment (field-independent basis, Debye):
    X=             -4.0186    Y=             -1.5388    Z=              0.0004  Tot=              4.3031
 Quadrupole moment (field-independent basis, Debye-Ang):
   XX=            -13.3407   YY=            -11.4050   ZZ=            -13.8193
   XY=             -2.2421   XZ=              0.0005   YZ=             -0.0006

 Normal termination of Gaussian 16 at Mon Apr 21 18:42:41 2025.
