 Gaussian 16, Revision A.03,
 Gaussian 16:  ES64L-G16RevA.03 25-Dec-2016

 --------------------------------------------
 #p opt UM062X/6-311+G** nosymm int=superfine
 --------------------------------------------

 -------------------
 Title Card Required
 -------------------
 Symbolic Z-matrix:
 Charge =  0 Multiplicity = 1

 SCF Done:  E(UM062X) =  -582.354673307     A.U. after   10 cycles
 SCF Done:  E(UM062X) =  -582.356960358     A.U. after    9 cycles
 SCF Done:  E(UM062X) =  -582.357690499     A.U. after    9 cycles
 SCF Done:  E(UM062X) =  -582.357691029     A.U. after    7 cycles
 Optimization completed.
    -- Stationary point found.

                          Input orientation:
 ---------------------------------------------------------------------
 Center     Atomic      Atomic             Coordinates (Angstroms)
 Number     Number       Type             X           Y           Z
 ---------------------------------------------------------------------
      1         14           0       -2.644819    0.000000    0.000000
      2         14           0        2.644819    0.000000    0.000000
      3          1           0        3.042477   -1.421761   -0.000053
      4          1           0       -3.042238   -0.710859    1.231375
      5          1           0        3.042384    0.711035   -1.231226
      6          1           0        3.042247    0.710912    1.231341
      7          1           0       -3.042481    1.421760   -0.000109
      8          1           0       -3.042391   -0.711090   -1.231192
 ---------------------------------------------------------------------

 Alpha  occ. eigenvalues --  -67.01872 -67.01872  -5.56812  -5.56812  -3.88047
 Alpha  occ. eigenvalues --   -3.88047  -3.87797  -3.87797  -3.87797  -3.87797
 Alpha  occ. eigenvalues --   -0.61195  -0.61040  -0.42217  -0.42216  -0.42198
 Alpha  occ. eigenvalues --   -0.42197  -0.20638
 Alpha virt. eigenvalues --   -0.12357   0.01911   0.02995   0.02995   0.03161
 Alpha virt. eigenvalues --    0.04857   0.04857   0.06404   0.06648   0.07662
 Alpha virt. eigenvalues --    0.07662   0.08254   0.08255   0.10710   0.15064

  Beta  occ. eigenvalues --  -67.01872 -67.01872  -5.56812  -5.56812  -3.88047
  Beta  occ. eigenvalues --   -3.88047  -3.87797  -3.87797  -3.87797  -3.87797
  Beta  occ. eigenvalues --   -0.61195  -0.61040  -0.42217  -0.42216  -0.42198
  Beta  occ. eigenvalues --   -0.42197  -0.20638
  Beta virt. eigenvalues --   -0.12357   0.01911   0.02995   0.02995   0.03161
  Beta virt. eigenvalues --    0.04857   0.04857   0.06404   0.06648   0.07662
  Beta virt. eigenvalues --    0.07662   0.08254   0.08255   0.10710   0.15064

 Mulliken charges and spin densities:
               1          2
     1  Si   0.262232   0.000012
     2  Si   0.262234  -0.000012
     3  H   -0.087409  -0.000000
     4  H   -0.087412   0.000000
     5  H   -0.087412  -0.000000
     6  H   -0.087412  -0.000000
     7  H   -0.087409   0.000000
     8  H   -0.087412   0.000000
 Sum of Mulliken charges =  -0.00000   0.00000

 Dipole moment (field-independent basis, Debye):
    X=              0.0000    Y=             -0.0000    Z=              0.0000  Tot=              0.0000
 Quadrupole moment (field-independent basis, Debye-Ang):
   XX=            -27.8862   YY=            -32.2441   ZZ=            -32.2443
   XY=             -0.0008   XZ=              0.0000   YZ=              0.0000

 Normal termination of Gaussian 16 at Mon Apr 21 20:21:22 2025.
