 Gaussian 16, Revision A.03,
 Gaussian 16:  ES64L-G16RevA.03 25-Dec-2016

 --------------------------------------------
 #p opt UM062X/6-311+G** nosymm int=superfine
 --------------------------------------------

 -------------------
 Title Card Required
 -------------------
 Symbolic Z-matrix:
 Charge =  0 Multiplicity = 1

 SCF Done:  E(UM062X) =  -95.5841355796     A.U. after   17 cycles
 SCF Done:  E(UM062X) =  -95.5995987217     A.U. after   13 cycles
 SCF Done:  E(UM062X) =  -95.6106885423     A.U. after   14 cycles
 SCF Done:  E(UM062X) =  -95.6111738411     A.U. after   12 cycles
 SCF Done:  E(UM062X) =  -95.6116415213     A.U. after   12 cycles
 SCF Done:  E(UM062X) =  -95.6118384188     A.U. after   15 cycles
 SCF Done:  E(UM062X) =  -95.6118831996     A.U. after   12 cycles
 SCF Done:  E(UM062X) =  -95.6118917546     A.U. after    9 cycles
 SCF Done:  E(UM062X) =  -95.6118930920     A.U. after   11 cycles
 SCF Done:  E(UM062X) =  -95.6118943998     A.U. after    9 cycles
 SCF Done:  E(UM062X) =  -95.6118960101     A.U. after   10 cycles
 SCF Done:  E(UM062X) =  -95.6118970800     A.U. after   11 cycles
 Optimization completed.
    -- Stationary point found.

                          Input orientation:
 ---------------------------------------------------------------------
 Center     Atomic      Atomic             Coordinates (Angstroms)
 Number     Number       Type             X           Y           Z
 ---------------------------------------------------------------------
      1          6           0       -1.855542    0.000000    0.000000
      2          7           0        1.855542    0.000000    0.000000
      3          1           0        1.801301   -1.015121    0.138463
      4          1           0       -1.842627    1.080308    0.010478
      5          1           0        1.801840    0.368201    0.956105
      6          1           0       -1.843051   -0.526044   -0.943642
      7          1           0       -1.979734   -0.548201    0.923022
 ---------------------------------------------------------------------

 Alpha  occ. eigenvalues --  -14.74830 -10.62102  -0.90171  -0.80972  -0.53158
 Alpha  occ. eigenvalues --   -0.52984  -0.50671  -0.35928  -0.24926
 Alpha virt. eigenvalues --   -0.14269   0.01749   0.04622   0.04968   0.07082
 Alpha virt. eigenvalues --    0.09927   0.13056   0.15870   0.16743   0.16857
 Alpha virt. eigenvalues --    0.18182   0.20537   0.22164   0.27010   0.41095

  Beta  occ. eigenvalues --  -14.74830 -10.62102  -0.90171  -0.80972  -0.53158
  Beta  occ. eigenvalues --   -0.52984  -0.50671  -0.35928  -0.24926
  Beta virt. eigenvalues --   -0.14269   0.01749   0.04622   0.04968   0.07082
  Beta virt. eigenvalues --    0.09927   0.13056   0.15870   0.16743   0.16857
  Beta virt. eigenvalues --    0.18182   0.20537   0.22164   0.27010   0.41095

 Mulliken charges and spin densities:
               1          2
     1  C   -0.430786   0.000000
     2  N   -0.578943  -0.000000
     3  H    0.210122   0.000000
     4  H    0.200182  -0.000000
     5  H    0.210125   0.000000
     6  H    0.200192  -0.000000
     7  H    0.189107  -0.000000
 Sum of Mulliken charges =  -0.00000  -0.00000

 Dipole moment (field-independent basis, Debye):
    X=             -3.3685    Y=             -1.0004    Z=              1.6928  Tot=              3.9004
 Quadrupole moment (field-independent basis, Debye-Ang):
   XX=            -15.7229   YY=            -13.4505   ZZ=            -14.2513
   XY=             -1.8983   XZ=              3.2146   YZ=              0.7277

 Normal termination of Gaussian 16 at Mon Apr 21 18:16:29 2025.
