 Gaussian 16, Revision A.03,
 Gaussian 16:  ES64L-G16RevA.03 25-Dec-2016

 --------------------------------------------
 #p opt UM062X/6-311+G** nosymm int=superfine
 --------------------------------------------

 -------------------
 Title Card Required
 -------------------
 Symbolic Z-matrix:
 Charge =  0 Multiplicity = 1

 SCF Done:  E(UM062X) =  -683.801548510     A.U. after    9 cycles
 SCF Done:  E(UM062X) =  -683.802099429     A.U. after    8 cycles
 SCF Done:  E(UM062X) =  -683.802117419     A.U. after    8 cycles
 Optimization completed.
    -- Stationary point found.

                          Input orientation:
 ---------------------------------------------------------------------
 Center     Atomic      Atomic             Coordinates (Angstroms)
 Number     Number       Type             X           Y           Z
 ---------------------------------------------------------------------
      1         15           0       -1.209490    0.000000    0.000000
      2         15           0        1.209490    0.000000    0.000000
      3          1           0       -1.234880   -1.420457    0.000000
      4          1           0        1.234880    1.420457    0.000000
 ---------------------------------------------------------------------

 Alpha  occ. eigenvalues --  -78.06393 -78.06393  -6.88503  -6.88500  -4.99996
 Alpha  occ. eigenvalues --   -4.99995  -4.99911  -4.99904  -4.99756  -4.99752
 Alpha  occ. eigenvalues --   -0.73017  -0.64162  -0.41427  -0.40064  -0.31908
 Alpha  occ. eigenvalues --   -0.28970
 Alpha virt. eigenvalues --   -0.11256  -0.01863   0.01801   0.03522   0.04381
 Alpha virt. eigenvalues --    0.04421   0.04787   0.06372   0.06931   0.08403
 Alpha virt. eigenvalues --    0.10460   0.12976   0.27754   0.29148   0.31228

  Beta  occ. eigenvalues --  -78.06393 -78.06393  -6.88503  -6.88500  -4.99996
  Beta  occ. eigenvalues --   -4.99995  -4.99911  -4.99904  -4.99756  -4.99752
  Beta  occ. eigenvalues --   -0.73017  -0.64162  -0.41427  -0.40064  -0.31908
  Beta  occ. eigenvalues --   -0.28970
  Beta virt. eigenvalues --   -0.11256  -0.01863   0.01801   0.03522   0.04381
  Beta virt. eigenvalues --    0.04421   0.04787   0.06372   0.06931   0.08403
  Beta virt. eigenvalues --    0.10460   0.12976   0.27754   0.29148   0.31228

 Mulliken charges and spin densities:
               1          2
     1  P    0.012682  -0.000000
     2  P    0.012682   0.000000
     3  H   -0.012682   0.000000
     4  H   -0.012682  -0.000000
 Sum of Mulliken charges =  -0.00000  -0.00000

 Dipole moment (field-independent basis, Debye):
    X=             -0.0000    Y=             -0.0000    Z=              0.0000  Tot=              0.0000
 Quadrupole moment (field-independent basis, Debye-Ang):
   XX=            -28.7829   YY=            -27.6896   ZZ=            -29.5048
   XY=              2.5884   XZ=             -0.0000   YZ=              0.0000

 Normal termination of Gaussian 16 at Mon Apr 21 21:06:44 2025.
