 Gaussian 16, Revision A.03,
 Gaussian 16:  ES64L-G16RevA.03 25-Dec-2016

 --------------------------------------------
 #p opt UM062X/6-311+G** nosymm int=superfine
 --------------------------------------------

 -------------------
 Title Card Required
 -------------------
 Symbolic Z-matrix:
 Charge =  0 Multiplicity = 1

 SCF Done:  E(UM062X) =  -579.885500797     A.U. after   10 cycles
 SCF Done:  E(UM062X) =  -579.888368991     A.U. after   10 cycles
 SCF Done:  E(UM062X) =  -579.888374470     A.U. after    7 cycles
 Optimization completed.
    -- Stationary point found.

                          Input orientation:
 ---------------------------------------------------------------------
 Center     Atomic      Atomic             Coordinates (Angstroms)
 Number     Number       Type             X           Y           Z
 ---------------------------------------------------------------------
      1         14           0       -2.028705    0.000000    0.000000
      2         14           0        2.028705    0.000000    0.000000
      3          1           0       -3.554688   -0.000026    0.000000
      4          1           0        3.554688    0.000041   -0.000000
 ---------------------------------------------------------------------

 Alpha  occ. eigenvalues --  -67.04531 -67.04531  -5.58951  -5.58949  -3.90057
 Alpha  occ. eigenvalues --   -3.90057  -3.89608  -3.89607  -3.89468  -3.89467
 Alpha  occ. eigenvalues --   -0.55027  -0.54613  -0.34028  -0.31104  -0.18148
 Alpha virt. eigenvalues --   -0.10439  -0.09361  -0.08098   0.02290   0.02929
 Alpha virt. eigenvalues --    0.04547   0.05726   0.05880   0.05963   0.06950
 Alpha virt. eigenvalues --    0.07075   0.08832   0.17321   0.29319   0.29508

  Beta  occ. eigenvalues --  -67.04531 -67.04531  -5.58951  -5.58949  -3.90057
  Beta  occ. eigenvalues --   -3.90057  -3.89608  -3.89607  -3.89468  -3.89467
  Beta  occ. eigenvalues --   -0.55027  -0.54613  -0.34028  -0.31104  -0.18148
  Beta virt. eigenvalues --   -0.10439  -0.09361  -0.08098   0.02290   0.02929
  Beta virt. eigenvalues --    0.04547   0.05726   0.05880   0.05963   0.06950
  Beta virt. eigenvalues --    0.07075   0.08832   0.17321   0.29319   0.29508

 Mulliken charges and spin densities:
               1          2
     1  Si   0.146955  -0.000000
     2  Si   0.146954   0.000000
     3  H   -0.146954   0.000000
     4  H   -0.146954  -0.000000
 Sum of Mulliken charges =  -0.00000   0.00000

 Dipole moment (field-independent basis, Debye):
    X=             -0.0000    Y=              0.0000    Z=             -0.0000  Tot=              0.0000
 Quadrupole moment (field-independent basis, Debye-Ang):
   XX=            -30.6477   YY=            -24.2732   ZZ=            -35.6713
   XY=             -0.0002   XZ=              0.0000   YZ=             -0.0003

 Normal termination of Gaussian 16 at Mon Apr 21 21:26:23 2025.
