 Gaussian 16, Revision A.03,
 Gaussian 16:  ES64L-G16RevA.03 25-Dec-2016

 --------------------------------------------
 #p opt UM062X/6-311+G** nosymm int=superfine
 --------------------------------------------

 -------------------
 Title Card Required
 -------------------
 Symbolic Z-matrix:
 Charge =  1 Multiplicity = 2

 SCF Done:  E(UM062X) =  -77.8869603873     A.U. after   10 cycles
 SCF Done:  E(UM062X) =  -77.9352123431     A.U. after    9 cycles
 SCF Done:  E(UM062X) =  -77.9948197663     A.U. after   11 cycles
 SCF Done:  E(UM062X) =  -78.0094511065     A.U. after   10 cycles
 SCF Done:  E(UM062X) =  -78.0118121040     A.U. after    9 cycles
 SCF Done:  E(UM062X) =  -78.0118176116     A.U. after    8 cycles
 SCF Done:  E(UM062X) =  -78.0118185106     A.U. after    7 cycles
 Optimization completed.
    -- Stationary point found.

                          Input orientation:
 ---------------------------------------------------------------------
 Center     Atomic      Atomic             Coordinates (Angstroms)
 Number     Number       Type             X           Y           Z
 ---------------------------------------------------------------------
      1          6           0       -1.123958    0.000000    0.000000
      2          6           0        1.123958    0.000000    0.000000
      3          1           0       -1.558877   -0.994173   -0.000000
      4          1           0       -1.558781    0.994123   -0.000000
      5          1           0        1.558877    0.994173   -0.000000
      6          1           0        1.558781   -0.994123   -0.000000
 ---------------------------------------------------------------------

 Alpha  occ. eigenvalues --  -10.92382 -10.92372  -1.05059  -1.00517  -0.80199
 Alpha  occ. eigenvalues --   -0.78163  -0.63657  -0.54346
 Alpha virt. eigenvalues --   -0.37702  -0.28935  -0.13884  -0.10913  -0.10371
 Alpha virt. eigenvalues --   -0.08134  -0.07538  -0.07000  -0.04739  -0.03833
 Alpha virt. eigenvalues --   -0.03439   0.00137   0.01887   0.09240   0.17960

  Beta  occ. eigenvalues --  -10.92138 -10.92132  -1.02120  -0.98207  -0.79734
  Beta  occ. eigenvalues --   -0.77802  -0.61987
  Beta virt. eigenvalues --   -0.34152  -0.28568  -0.26706  -0.15081  -0.11178
  Beta virt. eigenvalues --   -0.10521  -0.07509  -0.07381  -0.07270  -0.03999
  Beta virt. eigenvalues --   -0.03810  -0.02928   0.00656   0.00926   0.10109

 Mulliken charges and spin densities:
               1          2
     1  C   -0.068044   0.541741
     2  C   -0.068044   0.541740
     3  H    0.284030  -0.020870
     4  H    0.284014  -0.020870
     5  H    0.284030  -0.020870
     6  H    0.284014  -0.020870
 Sum of Mulliken charges =   1.00000   1.00000

 Dipole moment (field-independent basis, Debye):
    X=              0.0000    Y=             -0.0000    Z=             -0.0000  Tot=              0.0000
 Quadrupole moment (field-independent basis, Debye-Ang):
   XX=             -0.4455   YY=             -8.0183   ZZ=            -12.7153
   XY=              0.0006   XZ=              0.0000   YZ=             -0.0000

 Normal termination of Gaussian 16 at Tue Nov 19 11:32:06 2024.
