 Gaussian 16, Revision A.03,
 Gaussian 16:  ES64L-G16RevA.03 25-Dec-2016

 ---------------------------------------
 #p UM062X/6-311+G** force int=superfine
 ---------------------------------------

 -------------------
 Title Card Required
 -------------------
 Symbolic Z-matrix:
 Charge =  1 Multiplicity = 2

                         Standard orientation:
 ---------------------------------------------------------------------
 Center     Atomic      Atomic             Coordinates (Angstroms)
 Number     Number       Type             X           Y           Z
 ---------------------------------------------------------------------
      1          6           0       -0.045827    0.244048   -1.346907
      2          6           0        0.045813   -0.244044    1.346908
      3          1           0       -0.314978   -1.260771    1.241495
      4          1           0        0.652883   -0.551186   -1.580187
      5          1           0       -0.652672    0.551199    1.580836
      6          1           0        1.111701   -0.057197    1.409963
      7          1           0        0.314812    1.260832   -1.241512
      8          1           0       -1.111661    0.057099   -1.410600
 ---------------------------------------------------------------------

 SCF Done:  E(UM062X) =  -79.3488941823     A.U. after   10 cycles

 The electronic state is 2-A.
 Alpha  occ. eigenvalues --  -10.85425 -10.85421  -1.05239  -1.02630  -0.75555
 Alpha  occ. eigenvalues --   -0.75554  -0.74216  -0.74216  -0.54986
 Alpha virt. eigenvalues --   -0.33626  -0.14718  -0.10458  -0.10458  -0.10062
 Alpha virt. eigenvalues --   -0.06205  -0.06205  -0.05882  -0.03128  -0.03125
 Alpha virt. eigenvalues --   -0.03063   0.01491   0.01494   0.05423   0.07470

  Beta  occ. eigenvalues --  -10.85229 -10.85229  -1.02133  -1.00239  -0.74912
  Beta  occ. eigenvalues --   -0.74912  -0.73694  -0.73694
  Beta virt. eigenvalues --   -0.33300  -0.24304  -0.15499  -0.11117  -0.11117
  Beta virt. eigenvalues --   -0.09732  -0.06523  -0.06523  -0.05877  -0.03166
  Beta virt. eigenvalues --   -0.03163  -0.02280   0.01854   0.01855   0.06054

 Mulliken charges and spin densities:
               1          2
     1  C   -0.278219   0.573290
     2  C   -0.278218   0.573291
     3  H    0.259435  -0.024426
     4  H    0.259380  -0.024427
     5  H    0.259406  -0.024433
     6  H    0.259377  -0.024433
     7  H    0.259436  -0.024426
     8  H    0.259402  -0.024437
 Sum of Mulliken charges =   1.00000   1.00000

 Dipole moment (field-independent basis, Debye):
    X=              0.0000    Y=             -0.0000    Z=             -0.0000  Tot=              0.0000
 Quadrupole moment (field-independent basis, Debye-Ang):
   XX=            -10.9709   YY=            -10.7019   ZZ=             -2.5088
   XY=             -0.0521   XZ=              0.2878   YZ=             -1.5364

 Normal termination of Gaussian 16 at Wed Nov 13 13:02:18 2024.
