 Gaussian 16, Revision A.03,
 Gaussian 16:  ES64L-G16RevA.03 25-Dec-2016

 -------------------------------------------------------------------
 #p opt UM062X/6-311+G** nosymm int=superfine SCF=NoVarAcc SCF=tight
 -------------------------------------------------------------------

 -------------------
 Title Card Required
 -------------------
 Symbolic Z-matrix:
 Charge =  1 Multiplicity = 2

 SCF Done:  E(UM062X) =  -79.3128268425     A.U. after   13 cycles
 SCF Done:  E(UM062X) =  -79.3128774606     A.U. after    9 cycles
 SCF Done:  E(UM062X) =  -79.3128920547     A.U. after    8 cycles
 SCF Done:  E(UM062X) =  -79.3128999801     A.U. after    8 cycles
 SCF Done:  E(UM062X) =  -79.3129004244     A.U. after    8 cycles
 Optimization completed.
    -- Stationary point found.

                          Input orientation:
 ---------------------------------------------------------------------
 Center     Atomic      Atomic             Coordinates (Angstroms)
 Number     Number       Type             X           Y           Z
 ---------------------------------------------------------------------
      1          6           0       -4.282675    0.000000    0.000000
      2          6           0        4.282675    0.000000    0.000000
      3          1           0        4.287163   -0.936766    0.542444
      4          1           0       -4.287439   -0.937774   -0.540707
      5          1           0        4.289370    0.938154    0.540019
      6          1           0        4.288144   -0.001398   -1.082481
      7          1           0       -4.289014    0.937191   -0.541677
      8          1           0       -4.288131    0.000376    1.082484
 ---------------------------------------------------------------------

 Alpha  occ. eigenvalues --  -10.79843 -10.79843  -0.98610  -0.98592  -0.69846
 Alpha  occ. eigenvalues --   -0.69844  -0.69843  -0.69842  -0.40827
 Alpha virt. eigenvalues --   -0.37436  -0.09915  -0.09344  -0.06117  -0.06116
 Alpha virt. eigenvalues --   -0.05881  -0.05881  -0.04888  -0.03172   0.03197
 Alpha virt. eigenvalues --    0.03428   0.03430   0.03506   0.03508   0.03964

  Beta  occ. eigenvalues --  -10.79600 -10.79600  -0.95935  -0.95935  -0.69272
  Beta  occ. eigenvalues --   -0.69271  -0.69270  -0.69269
  Beta virt. eigenvalues --   -0.24920  -0.24912  -0.10239  -0.09934  -0.05680
  Beta virt. eigenvalues --   -0.05680  -0.05506  -0.05506  -0.02648  -0.01370
  Beta virt. eigenvalues --    0.03740   0.03741   0.03804   0.03805   0.04720

 Mulliken charges and spin densities:
               1          2
     1  C   -0.193269   0.566841
     2  C   -0.193271   0.566842
     3  H    0.231084  -0.022280
     4  H    0.231082  -0.022281
     5  H    0.231098  -0.022280
     6  H    0.231089  -0.022281
     7  H    0.231102  -0.022279
     8  H    0.231087  -0.022281
 Sum of Mulliken charges =   1.00000   1.00000

 Dipole moment (field-independent basis, Debye):
    X=              0.0000    Y=             -0.0001    Z=              0.0000  Tot=              0.0001
 Quadrupole moment (field-independent basis, Debye-Ang):
   XX=             74.9884   YY=            -11.1248   ZZ=            -11.1253
   XY=              0.0010   XZ=             -0.0001   YZ=             -0.0004

 Normal termination of Gaussian 16 at Tue Dec  3 16:12:43 2024.
