 Gaussian 16, Revision A.03,
 Gaussian 16:  ES64L-G16RevA.03 25-Dec-2016

 --------------------------------------------
 #p opt UM062X/6-311+G** nosymm int=superfine
 --------------------------------------------

 -------------------
 Title Card Required
 -------------------
 Symbolic Z-matrix:
 Charge =  0 Multiplicity = 1

 SCF Done:  E(UM062X) =  -76.9692422605     A.U. after   10 cycles
 SCF Done:  E(UM062X) =  -77.0140758529     A.U. after    9 cycles
 SCF Done:  E(UM062X) =  -77.0850708821     A.U. after   10 cycles
 SCF Done:  E(UM062X) =  -77.0942595044     A.U. after    9 cycles
 SCF Done:  E(UM062X) =  -77.0943080811     A.U. after    8 cycles
 Optimization completed.
    -- Stationary point found.

                          Input orientation:
 ---------------------------------------------------------------------
 Center     Atomic      Atomic             Coordinates (Angstroms)
 Number     Number       Type             X           Y           Z
 ---------------------------------------------------------------------
      1          6           0       -0.843907    0.000000    0.000000
      2          6           0        0.843907    0.000000    0.000000
      3          1           0       -1.920025    0.000000   -0.000000
      4          1           0        1.919978    0.000000   -0.000000
 ---------------------------------------------------------------------

 Alpha  occ. eigenvalues --  -10.65738 -10.65706  -0.77795  -0.69627  -0.53170
 Alpha  occ. eigenvalues --   -0.30291  -0.30291
 Alpha virt. eigenvalues --   -0.04449  -0.04449  -0.00048   0.02310   0.05922
 Alpha virt. eigenvalues --    0.08411   0.08411   0.09544   0.11092   0.11092
 Alpha virt. eigenvalues --    0.17633   0.22584   0.27650   0.46753   0.58534

  Beta  occ. eigenvalues --  -10.65738 -10.65706  -0.77795  -0.69627  -0.53170
  Beta  occ. eigenvalues --   -0.30291  -0.30291
  Beta virt. eigenvalues --   -0.04449  -0.04449  -0.00048   0.02310   0.05922
  Beta virt. eigenvalues --    0.08411   0.08411   0.09544   0.11092   0.11092
  Beta virt. eigenvalues --    0.17633   0.22584   0.27650   0.46753   0.58534

 Mulliken charges and spin densities:
               1          2
     1  C   -0.245372  -0.000000
     2  C   -0.245375   0.000000
     3  H    0.245380   0.000000
     4  H    0.245367   0.000000
 Sum of Mulliken charges =  -0.00000  -0.00000

 Dipole moment (field-independent basis, Debye):
    X=             -0.0001    Y=              0.0000    Z=             -0.0000  Tot=              0.0001
 Quadrupole moment (field-independent basis, Debye-Ang):
   XX=             -5.0142   YY=            -15.7473   ZZ=            -15.7473
   XY=              0.0000   XZ=              0.0000   YZ=              0.0000

 Normal termination of Gaussian 16 at Tue Dec  3 20:14:30 2024.
