 Gaussian 16, Revision A.03,
 Gaussian 16:  ES64L-G16RevA.03 25-Dec-2016

 --------------------------------------------
 #p opt UM062X/6-311+G** nosymm int=superfine
 --------------------------------------------

 -------------------
 Title Card Required
 -------------------
 Symbolic Z-matrix:
 Charge =  0 Multiplicity = 1

 SCF Done:  E(UM062X) =  -438.600009465     A.U. after   11 cycles
 SCF Done:  E(UM062X) =  -438.607282116     A.U. after   10 cycles
 SCF Done:  E(UM062X) =  -438.608842046     A.U. after   10 cycles
 SCF Done:  E(UM062X) =  -438.608851003     A.U. after    8 cycles
 SCF Done:  E(UM062X) =  -438.608854218     A.U. after    8 cycles
 SCF Done:  E(UM062X) =  -438.608854331     A.U. after    7 cycles
 Optimization completed.
    -- Stationary point found.

                          Input orientation:
 ---------------------------------------------------------------------
 Center     Atomic      Atomic             Coordinates (Angstroms)
 Number     Number       Type             X           Y           Z
 ---------------------------------------------------------------------
      1          6           0       -1.260220    0.000000    0.000000
      2         16           0        1.260220    0.000000    0.000000
      3          1           0        1.266330   -1.343325   -0.001427
      4          1           0       -1.421098    1.069266    0.002525
      5          1           0       -1.450470   -0.522895   -0.926955
      6          1           0       -1.450493   -0.527229    0.924496
 ---------------------------------------------------------------------

 Alpha  occ. eigenvalues --  -89.89309 -10.61173  -8.25548  -6.17628  -6.17508
 Alpha  occ. eigenvalues --   -6.16993  -0.81515  -0.76229  -0.51867  -0.51838
 Alpha  occ. eigenvalues --   -0.43599  -0.33584  -0.29441
 Alpha virt. eigenvalues --   -0.06561   0.02016   0.04408   0.05281   0.05649
 Alpha virt. eigenvalues --    0.07514   0.07777   0.08573   0.11394   0.13568
 Alpha virt. eigenvalues --    0.17425   0.18199   0.23680   0.32806   0.35832

  Beta  occ. eigenvalues --  -89.89309 -10.61173  -8.25548  -6.17628  -6.17508
  Beta  occ. eigenvalues --   -6.16993  -0.81515  -0.76229  -0.51867  -0.51838
  Beta  occ. eigenvalues --   -0.43599  -0.33584  -0.29441
  Beta virt. eigenvalues --   -0.06561   0.02016   0.04408   0.05281   0.05649
  Beta virt. eigenvalues --    0.07514   0.07777   0.08573   0.11394   0.13568
  Beta virt. eigenvalues --    0.17425   0.18199   0.23680   0.32806   0.35832

 Mulliken charges and spin densities:
               1          2
     1  C   -0.503450  -0.000000
     2  S   -0.165370   0.000000
     3  H    0.062110  -0.000000
     4  H    0.201814   0.000000
     5  H    0.202468   0.000000
     6  H    0.202427   0.000000
 Sum of Mulliken charges =  -0.00000  -0.00000

 Dipole moment (field-independent basis, Debye):
    X=             -2.5355    Y=             -0.9273    Z=             -0.0010  Tot=              2.6997
 Quadrupole moment (field-independent basis, Debye-Ang):
   XX=            -21.0097   YY=            -19.3413   ZZ=            -23.3199
   XY=             -1.5096   XZ=             -0.0016   YZ=              0.0042

 Normal termination of Gaussian 16 at Mon Apr 21 19:34:28 2025.
