 Gaussian 16, Revision A.03,
 Gaussian 16:  ES64L-G16RevA.03 25-Dec-2016

 --------------------------------------------
 #p opt UM062X/6-311+G** nosymm int=superfine
 --------------------------------------------

 -------------------
 Title Card Required
 -------------------
 Symbolic Z-matrix:
 Charge =  0 Multiplicity = 1

 SCF Done:  E(UM062X) =  -151.301057100     A.U. after   23 cycles
 SCF Done:  E(UM062X) =  -151.301476364     A.U. after   22 cycles
 SCF Done:  E(UM062X) =  -151.301940343     A.U. after   24 cycles
 SCF Done:  E(UM062X) =  -151.302492231     A.U. after   27 cycles
 SCF Done:  E(UM062X) =  -151.302809341     A.U. after   22 cycles
 SCF Done:  E(UM062X) =  -151.303058639     A.U. after   23 cycles
 SCF Done:  E(UM062X) =  -151.303133781     A.U. after   22 cycles
 SCF Done:  E(UM062X) =  -151.303175949     A.U. after   28 cycles
 SCF Done:  E(UM062X) =  -151.303187086     A.U. after   27 cycles
 SCF Done:  E(UM062X) =  -151.303188236     A.U. after   17 cycles
 SCF Done:  E(UM062X) =  -151.303188254     A.U. after   15 cycles
 Optimization completed.
    -- Stationary point found.

                          Input orientation:
 ---------------------------------------------------------------------
 Center     Atomic      Atomic             Coordinates (Angstroms)
 Number     Number       Type             X           Y           Z
 ---------------------------------------------------------------------
      1          8           0       -1.986938    0.000000    0.000000
      2          8           0        1.986938    0.000000    0.000000
      3          1           0       -1.796108   -0.755823   -0.583490
      4          1           0        1.796515    0.755247    0.584366
 ---------------------------------------------------------------------

 Alpha  occ. eigenvalues --  -19.72293 -19.72293  -1.12909  -1.12766  -0.56682
 Alpha  occ. eigenvalues --   -0.56620  -0.44106  -0.44021  -0.35745
 Alpha virt. eigenvalues --   -0.27543   0.05115   0.07323   0.15214   0.15291
 Alpha virt. eigenvalues --    0.16454   0.18077   0.19406   0.19878   0.20268
 Alpha virt. eigenvalues --    0.30359   0.49288   0.50670   0.99646   1.00973

  Beta  occ. eigenvalues --  -19.72293 -19.72293  -1.12909  -1.12766  -0.56682
  Beta  occ. eigenvalues --   -0.56620  -0.44106  -0.44021  -0.35745
  Beta virt. eigenvalues --   -0.27543   0.05115   0.07323   0.15214   0.15291
  Beta virt. eigenvalues --    0.16454   0.18077   0.19406   0.19878   0.20268
  Beta virt. eigenvalues --    0.30359   0.49288   0.50670   0.99646   1.00973

 Mulliken charges and spin densities:
               1          2
     1  O   -0.266581  -0.000000
     2  O   -0.266604   0.000000
     3  H    0.266595   0.000000
     4  H    0.266590  -0.000000
 Sum of Mulliken charges =  -0.00000  -0.00000

 Dipole moment (field-independent basis, Debye):
    X=              0.0006    Y=             -0.0012    Z=              0.0017  Tot=              0.0021
 Quadrupole moment (field-independent basis, Debye-Ang):
   XX=            -13.6978   YY=            -10.6117   ZZ=            -11.8829
   XY=              5.4955   XZ=              4.2472   YZ=              2.4398

 Normal termination of Gaussian 16 at Mon Apr 21 21:39:22 2025.
