 Gaussian 16, Revision A.03,
 Gaussian 16:  ES64L-G16RevA.03 25-Dec-2016

 --------------------------------------------
 #p opt UM062X/6-311+G** nosymm int=superfine
 --------------------------------------------

 -------------------
 Title Card Required
 -------------------
 Symbolic Z-matrix:
 Charge =  1 Multiplicity = 2

 SCF Done:  E(UM062X) =  -580.866562956     A.U. after   11 cycles
 SCF Done:  E(UM062X) =  -580.867084793     A.U. after   13 cycles
 SCF Done:  E(UM062X) =  -580.867268278     A.U. after   14 cycles
 SCF Done:  E(UM062X) =  -580.866937960     A.U. after   29 cycles
 SCF Done:  E(UM062X) =  -580.867265781     A.U. after   23 cycles
 SCF Done:  E(UM062X) =  -580.867268512     A.U. after    8 cycles
 SCF Done:  E(UM062X) =  -580.867268770     A.U. after   16 cycles
 Optimization completed.
    -- Stationary point found.

                          Input orientation:
 ---------------------------------------------------------------------
 Center     Atomic      Atomic             Coordinates (Angstroms)
 Number     Number       Type             X           Y           Z
 ---------------------------------------------------------------------
      1         14           0       -1.716295    0.000000    0.000000
      2         14           0        1.716295    0.000000    0.000000
      3          1           0       -2.396835   -1.303934   -0.000776
      4          1           0        2.396823    1.303941    0.000609
      5          1           0       -2.396838    1.303933   -0.000010
      6          1           0        2.396827   -1.303938   -0.001170
 ---------------------------------------------------------------------

 Alpha  occ. eigenvalues --  -67.26828 -67.26828  -5.81099  -5.81099  -4.12709
 Alpha  occ. eigenvalues --   -4.12708  -4.12090  -4.12089  -4.11876  -4.11876
 Alpha  occ. eigenvalues --   -0.80835  -0.79340  -0.63642  -0.63313  -0.50095
 Alpha  occ. eigenvalues --   -0.40974
 Alpha virt. eigenvalues --   -0.30854  -0.30538  -0.13167  -0.12726  -0.11932
 Alpha virt. eigenvalues --   -0.10337  -0.08940  -0.08653  -0.07378  -0.07060
 Alpha virt. eigenvalues --   -0.06174  -0.05488  -0.02012  -0.01048   0.12005

  Beta  occ. eigenvalues --  -67.26534 -67.26534  -5.81014  -5.81014  -4.12017
  Beta  occ. eigenvalues --   -4.12015  -4.11982  -4.11982  -4.11771  -4.11770
  Beta  occ. eigenvalues --   -0.79037  -0.77837  -0.63654  -0.63366  -0.49056
  Beta virt. eigenvalues --   -0.28968  -0.27651  -0.24980  -0.13408  -0.13257
  Beta virt. eigenvalues --   -0.11549  -0.11391  -0.09682  -0.08201  -0.06706
  Beta virt. eigenvalues --   -0.06700  -0.06650  -0.03901  -0.03890  -0.01459

 Mulliken charges and spin densities:
               1          2
     1  Si   0.439827   0.553795
     2  Si   0.439826   0.553731
     3  H    0.030086  -0.026878
     4  H    0.030088  -0.026886
     5  H    0.030086  -0.026878
     6  H    0.030088  -0.026886
 Sum of Mulliken charges =   1.00000   1.00000

 Dipole moment (field-independent basis, Debye):
    X=              0.0000    Y=              0.0000    Z=              0.0000  Tot=              0.0000
 Quadrupole moment (field-independent basis, Debye-Ang):
   XX=             -3.9265   YY=            -23.8661   ZZ=            -25.2539
   XY=             -0.0000   XZ=             -0.0001   YZ=              0.0007

 Normal termination of Gaussian 16 at Mon Apr 21 20:25:04 2025.
