 Gaussian 16, Revision A.03,
 Gaussian 16:  ES64L-G16RevA.03 25-Dec-2016

 --------------------------------
 #p UM062X/6-311+G** Pop=NBO Read
 --------------------------------

 ------------
 NBO Analysis
 ------------
 Symbolic Z-matrix:
 Charge =  0 Multiplicity = 1

                         Standard orientation:
 ---------------------------------------------------------------------
 Center     Atomic      Atomic             Coordinates (Angstroms)
 Number     Number       Type             X           Y           Z
 ---------------------------------------------------------------------
      1          5           0       -0.779367   -0.000000   -0.000016
      2          7           0        0.611431    0.000000   -0.000016
      3          1           0       -1.354388    1.041830   -0.000016
      4          1           0        1.162795   -0.843395    0.000096
      5          1           0       -1.354387   -1.041830    0.000233
      6          1           0        1.162793    0.843397   -0.000124
 ---------------------------------------------------------------------

 SCF Done:  E(UM062X) =  -82.0022635713     A.U. after   10 cycles

 The electronic state is 1-A.
 Alpha  occ. eigenvalues --  -14.76440  -7.03219  -0.97492  -0.60281  -0.58602
 Alpha  occ. eigenvalues --   -0.45707  -0.37974  -0.36624
 Alpha virt. eigenvalues --    0.00790   0.02191   0.04280   0.04566   0.09193
 Alpha virt. eigenvalues --    0.11913   0.13086   0.17608   0.18640   0.22975
 Alpha virt. eigenvalues --    0.24436   0.28962   0.33908   0.40114   0.57690

  Beta  occ. eigenvalues --  -14.76440  -7.03219  -0.97492  -0.60281  -0.58602
  Beta  occ. eigenvalues --   -0.45707  -0.37974  -0.36624
  Beta virt. eigenvalues --    0.00790   0.02191   0.04280   0.04566   0.09193
  Beta virt. eigenvalues --    0.11913   0.13086   0.17608   0.18640   0.22975
  Beta virt. eigenvalues --    0.24436   0.28962   0.33908   0.40114   0.57690

 Mulliken charges and spin densities:
               1          2
     1  B    0.138444   0.000000
     2  N   -0.551691  -0.000000
     3  H   -0.047478   0.000000
     4  H    0.254102   0.000000
     5  H   -0.047478   0.000000
     6  H    0.254102  -0.000000
 Sum of Mulliken charges =  -0.00000   0.00000

 Dipole moment (field-independent basis, Debye):
    X=              1.8585    Y=             -0.0000    Z=             -0.0001  Tot=              1.8585
 Quadrupole moment (field-independent basis, Debye-Ang):
   XX=            -13.1779   YY=            -13.2073   ZZ=            -15.1009
   XY=              0.0000   XZ=              0.0002   YZ=             -0.0003

 Summary of Natural Population Analysis:

                                       Natural Population
                Natural  -----------------------------------------------
    Atom  No    Charge         Core      Valence    Rydberg      Total
 -----------------------------------------------------------------------
      B    1    0.20638      0.99975     1.28705    0.00682     2.29362
      N    2   -0.55802      0.99976     3.05360    0.00465     4.05802
      H    3   -0.03934      0.00000     0.53897    0.00037     0.53934
      H    4    0.21516      0.00000     0.28369    0.00115     0.28484
      H    5   -0.03934      0.00000     0.53897    0.00037     0.53934
      H    6    0.21516      0.00000     0.28369    0.00115     0.28484
 =======================================================================
   * Total *    0.00000      1.99951     5.98596    0.01453     8.00000

 Normal termination of Gaussian 16 at Wed Apr 16 01:22:27 2025.
