 Gaussian 16, Revision A.03,
 Gaussian 16:  ES64L-G16RevA.03 25-Dec-2016

 --------------------------------------------
 #p opt UM062X/6-311+G** nosymm int=superfine
 --------------------------------------------

 -------------------
 Title Card Required
 -------------------
 Symbolic Z-matrix:
 Charge =  0 Multiplicity = 1

 SCF Done:  E(UM062X) =  -83.1585922240     A.U. after   10 cycles
 SCF Done:  E(UM062X) =  -83.1653185926     A.U. after    9 cycles
 SCF Done:  E(UM062X) =  -83.1657047249     A.U. after    9 cycles
 SCF Done:  E(UM062X) =  -83.1657072758     A.U. after    7 cycles
 SCF Done:  E(UM062X) =  -83.1657085508     A.U. after    7 cycles
 Optimization completed.
    -- Stationary point found.

                          Input orientation:
 ---------------------------------------------------------------------
 Center     Atomic      Atomic             Coordinates (Angstroms)
 Number     Number       Type             X           Y           Z
 ---------------------------------------------------------------------
      1          5           0       -1.127429    0.000000    0.000000
      2          7           0        1.127429    0.000000    0.000000
      3          1           0        1.471586   -0.952662   -0.000002
      4          1           0       -1.258369   -0.593064    1.027207
      5          1           0        1.471358    0.476432   -0.825070
      6          1           0        1.471350    0.476426    0.825076
      7          1           0       -1.258341    1.186124    0.000012
      8          1           0       -1.258372   -0.593045   -1.027218
 ---------------------------------------------------------------------

 Alpha  occ. eigenvalues --  -14.77458  -7.00800  -1.00042  -0.57974  -0.57974
 Alpha  occ. eigenvalues --   -0.55459  -0.38428  -0.36720  -0.36720
 Alpha virt. eigenvalues --   -0.00229   0.03492   0.04718   0.04718   0.08277
 Alpha virt. eigenvalues --    0.10554   0.11035   0.11035   0.16266   0.16267
 Alpha virt. eigenvalues --    0.17059   0.20811   0.20812   0.23675   0.30545

  Beta  occ. eigenvalues --  -14.77458  -7.00800  -1.00042  -0.57974  -0.57974
  Beta  occ. eigenvalues --   -0.55459  -0.38428  -0.36720  -0.36720
  Beta virt. eigenvalues --   -0.00229   0.03492   0.04718   0.04718   0.08277
  Beta virt. eigenvalues --    0.10554   0.11035   0.11035   0.16266   0.16267
  Beta virt. eigenvalues --    0.17059   0.20811   0.20812   0.23675   0.30545

 Mulliken charges and spin densities:
               1          2
     1  B   -0.032215  -0.000000
     2  N   -0.706208   0.000000
     3  H    0.277839  -0.000000
     4  H   -0.031698   0.000000
     5  H    0.277843  -0.000000
     6  H    0.277843  -0.000000
     7  H   -0.031705  -0.000000
     8  H   -0.031698  -0.000000
 Sum of Mulliken charges =  -0.00000   0.00000

 Dipole moment (field-independent basis, Debye):
    X=              3.6940    Y=              0.0002    Z=              0.0000  Tot=              3.6940
 Quadrupole moment (field-independent basis, Debye-Ang):
   XX=            -14.0803   YY=            -15.9114   ZZ=            -15.9115
   XY=             -0.0001   XZ=             -0.0000   YZ=              0.0000

 Normal termination of Gaussian 16 at Mon Apr 21 17:36:35 2025.
