 Gaussian 16, Revision A.03,
 Gaussian 16:  ES64L-G16RevA.03 25-Dec-2016

 ---------------------------------------------------
 #p UM062X/6-311+G** force int=superfine pop=saveNBO
 ---------------------------------------------------

 -------------------
 Title Card Required
 -------------------
 Symbolic Z-matrix:
 Charge =  0 Multiplicity = 1

                         Standard orientation:
 ---------------------------------------------------------------------
 Center     Atomic      Atomic             Coordinates (Angstroms)
 Number     Number       Type             X           Y           Z
 ---------------------------------------------------------------------
      1          8           0        0.000000    0.000000    0.843562
      2          8           0        0.000000    0.000000   -0.843562
 ---------------------------------------------------------------------

 SCF Done:  E(UM062X) =  -150.089967505     A.U. after    9 cycles

 Unable to determine electronic state:  partially filled degenerate orbitals.
 Alpha  occ. eigenvalues --  -19.83353 -19.83337  -1.19860  -1.03865  -0.54448
 Alpha  occ. eigenvalues --   -0.53168  -0.48138  -0.44708
 Alpha virt. eigenvalues --   -0.23766  -0.10698   0.10444   0.13529   0.15180
 Alpha virt. eigenvalues --    0.15575   0.20931   0.21153   0.21290   0.33675
 Alpha virt. eigenvalues --    0.96013   0.96814   0.99888   1.06720   1.08095

  Beta  occ. eigenvalues --  -19.83353 -19.83337  -1.19860  -1.03865  -0.54448
  Beta  occ. eigenvalues --   -0.53168  -0.48138  -0.44708
  Beta virt. eigenvalues --   -0.23766  -0.10698   0.10444   0.13529   0.15180
  Beta virt. eigenvalues --    0.15575   0.20931   0.21153   0.21290   0.33675
  Beta virt. eigenvalues --    0.96013   0.96814   0.99888   1.06720   1.08095

 Mulliken charges and spin densities:
               1          2
     1  O    0.000000   0.000000
     2  O    0.000000   0.000000
 Sum of Mulliken charges =   0.00000   0.00000

 Dipole moment (field-independent basis, Debye):
    X=             -0.0000    Y=              0.0000    Z=             -0.0000  Tot=              0.0000
 Quadrupole moment (field-independent basis, Debye-Ang):
   XX=             -9.9402   YY=            -11.6684   ZZ=             -9.9621
   XY=              0.0000   XZ=              0.0000   YZ=              0.0000

 Summary of Natural Population Analysis:

                                       Natural Population
                Natural  -----------------------------------------------
    Atom  No    Charge         Core      Valence    Rydberg      Total
 -----------------------------------------------------------------------
      O    1    0.00000      1.00000     2.99737    0.00264     4.00000
      O    2    0.00000      1.00000     2.99737    0.00264     4.00000
 =======================================================================
   * Total *    0.00000      1.99999     5.99474    0.00527     8.00000

 Normal termination of Gaussian 16 at Mon Apr 21 19:53:50 2025.
