 Gaussian 16, Revision A.03,
 Gaussian 16:  ES64L-G16RevA.03 25-Dec-2016

 --------------------------------------------
 #p opt UM062X/6-311+G** nosymm int=superfine
 --------------------------------------------

 -------------------
 Title Card Required
 -------------------
 Symbolic Z-matrix:
 Charge =  0 Multiplicity = 1

 SCF Done:  E(UM062X) =  -76.6914485350     A.U. after   10 cycles
 SCF Done:  E(UM062X) =  -76.8410963427     A.U. after    9 cycles
 SCF Done:  E(UM062X) =  -76.8954552396     A.U. after   10 cycles
 SCF Done:  E(UM062X) =  -76.8996615915     A.U. after    9 cycles
 SCF Done:  E(UM062X) =  -76.8996653094     A.U. after    7 cycles
 Optimization completed.
    -- Stationary point found.

                          Input orientation:
 ---------------------------------------------------------------------
 Center     Atomic      Atomic             Coordinates (Angstroms)
 Number     Number       Type             X           Y           Z
 ---------------------------------------------------------------------
      1          6           0       -0.436916    0.000000    0.000000
      2          6           0        0.436916    0.000000    0.000000
      3          1           0       -1.494650    0.000000   -0.000000
      4          1           0        1.494649    0.000000   -0.000000
 ---------------------------------------------------------------------

 Alpha  occ. eigenvalues --  -10.48377 -10.44357  -0.89291  -0.59571  -0.55666
 Alpha  occ. eigenvalues --   -0.43647  -0.43647
 Alpha virt. eigenvalues --    0.02922   0.03618   0.06933   0.06933   0.08041
 Alpha virt. eigenvalues --    0.08041   0.09718   0.17025   0.22949   0.23851
 Alpha virt. eigenvalues --    0.23851   0.25171   0.44108   0.48416   0.52339

  Beta  occ. eigenvalues --  -10.48377 -10.44357  -0.89291  -0.59571  -0.55666
  Beta  occ. eigenvalues --   -0.43647  -0.43647
  Beta virt. eigenvalues --    0.02922   0.03618   0.06933   0.06933   0.08041
  Beta virt. eigenvalues --    0.08041   0.09718   0.17025   0.22949   0.23851
  Beta virt. eigenvalues --    0.23851   0.25171   0.44108   0.48416   0.52339

 Mulliken charges and spin densities:
               1          2
     1  C   -0.106868   0.000000
     2  C   -0.106868  -0.000000
     3  H    0.106868  -0.000000
     4  H    0.106868   0.000000
 Sum of Mulliken charges =  -0.00000   0.00000

 Dipole moment (field-independent basis, Debye):
    X=             -0.0000    Y=              0.0000    Z=             -0.0000  Tot=              0.0000
 Quadrupole moment (field-independent basis, Debye-Ang):
   XX=             -7.8198   YY=            -12.0297   ZZ=            -12.0297
   XY=             -0.0000   XZ=              0.0000   YZ=              0.0000

 Normal termination of Gaussian 16 at Tue Dec  3 19:55:57 2024.
