 Gaussian 16, Revision A.03,
 Gaussian 16:  ES64L-G16RevA.03 25-Dec-2016

 --------------------------------------------
 #p opt UM062X/6-311+G** nosymm int=superfine
 --------------------------------------------

 -------------------
 Title Card Required
 -------------------
 Symbolic Z-matrix:
 Charge =  0 Multiplicity = 1

 SCF Done:  E(UM062X) =  -379.723580849     A.U. after   12 cycles
 SCF Done:  E(UM062X) =  -379.724050564     A.U. after   10 cycles
 Optimization completed.
    -- Stationary point found.

                          Input orientation:
 ---------------------------------------------------------------------
 Center     Atomic      Atomic             Coordinates (Angstroms)
 Number     Number       Type             X           Y           Z
 ---------------------------------------------------------------------
      1          6           0       -1.190377    0.000000    0.000000
      2         15           0        1.190377    0.000000    0.000000
      3          1           0       -2.290705    0.000000    0.000000
 ---------------------------------------------------------------------

 Alpha  occ. eigenvalues --  -78.10652 -10.68656  -6.92112  -5.03657  -5.03289
 Alpha  occ. eigenvalues --   -5.03289  -0.74648  -0.63233  -0.41866  -0.27567
 Alpha  occ. eigenvalues --   -0.27567
 Alpha virt. eigenvalues --   -0.11218  -0.11218  -0.06793   0.01608   0.04210
 Alpha virt. eigenvalues --    0.05479   0.05479   0.07240   0.09917   0.09917
 Alpha virt. eigenvalues --    0.15654   0.20707   0.29934   0.32762   0.32762

  Beta  occ. eigenvalues --  -78.10652 -10.68656  -6.92112  -5.03657  -5.03289
  Beta  occ. eigenvalues --   -5.03289  -0.74648  -0.63233  -0.41866  -0.27567
  Beta  occ. eigenvalues --   -0.27567
  Beta virt. eigenvalues --   -0.11218  -0.11218  -0.06793   0.01608   0.04210
  Beta virt. eigenvalues --    0.05479   0.05479   0.07240   0.09917   0.09917
  Beta virt. eigenvalues --    0.15654   0.20707   0.29934   0.32762   0.32762

 Mulliken charges and spin densities:
               1          2
     1  C   -0.341430   0.000000
     2  P    0.120047   0.000000
     3  H    0.221383   0.000000
 Sum of Mulliken charges =  -0.00000   0.00000

 Dipole moment (field-independent basis, Debye):
    X=             -0.6549    Y=              0.0000    Z=              0.0000  Tot=              0.6549
 Quadrupole moment (field-independent basis, Debye-Ang):
   XX=            -12.5582   YY=            -22.9763   ZZ=            -22.9763
   XY=             -0.0000   XZ=              0.0000   YZ=              0.0000

 Normal termination of Gaussian 16 at Mon Apr 21 19:28:57 2025.
