 Gaussian 16, Revision A.03,
 Gaussian 16:  ES64L-G16RevA.03 25-Dec-2016

 --------------------------------------------
 #p opt UM062X/6-311+G** nosymm int=superfine
 --------------------------------------------

 -------------------
 Title Card Required
 -------------------
 Symbolic Z-matrix:
 Charge =  0 Multiplicity = 1

 SCF Done:  E(UM062X) =  -438.470972384     A.U. after   15 cycles
 SCF Done:  E(UM062X) =  -438.484732464     A.U. after   13 cycles
 SCF Done:  E(UM062X) =  -438.492086368     A.U. after   13 cycles
 SCF Done:  E(UM062X) =  -438.492160179     A.U. after   10 cycles
 SCF Done:  E(UM062X) =  -438.492174951     A.U. after   11 cycles
 SCF Done:  E(UM062X) =  -438.492221039     A.U. after   10 cycles
 SCF Done:  E(UM062X) =  -438.492225462     A.U. after   12 cycles
 SCF Done:  E(UM062X) =  -438.492226056     A.U. after    9 cycles
 SCF Done:  E(UM062X) =  -438.492226167     A.U. after    9 cycles
 SCF Done:  E(UM062X) =  -438.492226381     A.U. after   10 cycles
 SCF Done:  E(UM062X) =  -438.492227068     A.U. after   13 cycles
 SCF Done:  E(UM062X) =  -438.492227193     A.U. after   12 cycles
 SCF Done:  E(UM062X) =  -438.492227315     A.U. after   15 cycles
 SCF Done:  E(UM062X) =  -438.492227298     A.U. after   12 cycles
 SCF Done:  E(UM062X) =  -438.492227829     A.U. after   13 cycles
 SCF Done:  E(UM062X) =  -438.492227854     A.U. after   12 cycles
 SCF Done:  E(UM062X) =  -438.492228046     A.U. after   13 cycles
 SCF Done:  E(UM062X) =  -438.492228046     A.U. after   12 cycles
 SCF Done:  E(UM062X) =  -438.492227931     A.U. after   10 cycles
 SCF Done:  E(UM062X) =  -438.492228045     A.U. after   16 cycles
 Optimization completed.
    -- Stationary point found.

                          Input orientation:
 ---------------------------------------------------------------------
 Center     Atomic      Atomic             Coordinates (Angstroms)
 Number     Number       Type             X           Y           Z
 ---------------------------------------------------------------------
      1          6           0       -2.110220    0.000000    0.000000
      2         16           0        2.110220    0.000000    0.000000
      3          1           0        2.072010   -1.342593   -0.067362
      4          1           0       -2.084309    1.080743   -0.013631
      5          1           0       -2.144894   -0.550322   -0.929957
      6          1           0       -2.142471   -0.526857    0.943540
 ---------------------------------------------------------------------

 Alpha  occ. eigenvalues --  -89.87430 -10.65167  -8.23749  -6.15789  -6.15732
 Alpha  occ. eigenvalues --   -6.15179  -0.83601  -0.75336  -0.55662  -0.55592
 Alpha  occ. eigenvalues --   -0.41884  -0.27827  -0.26058
 Alpha virt. eigenvalues --   -0.17012   0.00873   0.03632   0.03954   0.05531
 Alpha virt. eigenvalues --    0.07485   0.08384   0.08429   0.10688   0.13362
 Alpha virt. eigenvalues --    0.15379   0.15481   0.20189   0.34800   0.36080

  Beta  occ. eigenvalues --  -89.87430 -10.65167  -8.23749  -6.15789  -6.15732
  Beta  occ. eigenvalues --   -6.15179  -0.83601  -0.75336  -0.55662  -0.55592
  Beta  occ. eigenvalues --   -0.41884  -0.27827  -0.26058
  Beta virt. eigenvalues --   -0.17012   0.00873   0.03632   0.03954   0.05531
  Beta virt. eigenvalues --    0.07485   0.08384   0.08429   0.10688   0.13362
  Beta virt. eigenvalues --    0.15379   0.15481   0.20189   0.34800   0.36080

 Mulliken charges and spin densities:
               1          2
     1  C   -0.369017   0.000000
     2  S   -0.296665  -0.000000
     3  H    0.050216   0.000000
     4  H    0.207065   0.000000
     5  H    0.203992   0.000000
     6  H    0.204410   0.000000
 Sum of Mulliken charges =  -0.00000   0.00000

 Dipole moment (field-independent basis, Debye):
    X=             -5.4129    Y=             -0.9561    Z=             -0.0482  Tot=              5.4969
 Quadrupole moment (field-independent basis, Debye-Ang):
   XX=            -21.0017   YY=            -19.6365   ZZ=            -23.6674
   XY=             -2.0484   XZ=             -0.1052   YZ=              0.2027

 Normal termination of Gaussian 16 at Mon Apr 21 19:42:42 2025.
