 Gaussian 16, Revision A.03,
 Gaussian 16:  ES64L-G16RevA.03 25-Dec-2016

 --------------------------------------------
 #p opt UM062X/6-311+G** nosymm int=superfine
 --------------------------------------------

 -------------------
 Title Card Required
 -------------------
 Symbolic Z-matrix:
 Charge =  0 Multiplicity = 1

 SCF Done:  E(UM062X) =  -114.082239438     A.U. after   18 cycles
 SCF Done:  E(UM062X) =  -114.085378515     A.U. after   10 cycles
 SCF Done:  E(UM062X) =  -114.086330643     A.U. after    9 cycles
 SCF Done:  E(UM062X) =  -114.086333846     A.U. after    9 cycles
 Optimization completed.
    -- Stationary point found.

                          Input orientation:
 ---------------------------------------------------------------------
 Center     Atomic      Atomic             Coordinates (Angstroms)
 Number     Number       Type             X           Y           Z
 ---------------------------------------------------------------------
      1          6           0       -2.098311    0.000000    0.000000
      2          8           0        2.098311    0.000000    0.000000
      3          1           0       -2.792128   -0.863807    0.000001
      4          1           0       -2.792133    0.863803    0.000001
 ---------------------------------------------------------------------

 Alpha  occ. eigenvalues --  -19.75909 -10.61647  -1.05586  -0.76398  -0.48407
 Alpha  occ. eigenvalues --   -0.44486  -0.44484  -0.32169
 Alpha virt. eigenvalues --   -0.18447  -0.08910   0.01931   0.06139   0.08072
 Alpha virt. eigenvalues --    0.08217   0.15490   0.16076   0.18625   0.19011
 Alpha virt. eigenvalues --    0.20257   0.23783   0.44036   0.48067   0.58288

  Beta  occ. eigenvalues --  -19.75909 -10.61647  -1.05586  -0.76398  -0.48407
  Beta  occ. eigenvalues --   -0.44486  -0.44484  -0.32169
  Beta virt. eigenvalues --   -0.18447  -0.08910   0.01931   0.06139   0.08072
  Beta virt. eigenvalues --    0.08217   0.15490   0.16076   0.18625   0.19011
  Beta virt. eigenvalues --    0.20257   0.23783   0.44036   0.48067   0.58288

 Mulliken charges and spin densities:
               1          2
     1  C   -0.263889  -0.000000
     2  O   -0.003755   0.000000
     3  H    0.133822  -0.000000
     4  H    0.133822   0.000000
 Sum of Mulliken charges =  -0.00000  -0.00000

 Dipole moment (field-independent basis, Debye):
    X=             -2.3076    Y=             -0.0000    Z=              0.0000  Tot=              2.3076
 Quadrupole moment (field-independent basis, Debye-Ang):
   XX=             -4.0382   YY=            -13.2022   ZZ=            -12.4746
   XY=              0.0000   XZ=             -0.0000   YZ=             -0.0000

 Normal termination of Gaussian 16 at Mon Apr 21 19:01:13 2025.
