 Gaussian 16, Revision A.03,
 Gaussian 16:  ES64L-G16RevA.03 25-Dec-2016

 --------------------------------------------
 #p opt UM062X/6-311+G** nosymm int=superfine
 --------------------------------------------

 -------------------
 Title Card Required
 -------------------
 Symbolic Z-matrix:
 Charge =  0 Multiplicity = 1

 SCF Done:  E(UM062X) =  -79.7133208362     A.U. after    8 cycles
 SCF Done:  E(UM062X) =  -79.7353136899     A.U. after    8 cycles
 SCF Done:  E(UM062X) =  -79.7464360855     A.U. after    9 cycles
 SCF Done:  E(UM062X) =  -79.7465231183     A.U. after    7 cycles
 Optimization completed.
    -- Stationary point found.

                          Input orientation:
 ---------------------------------------------------------------------
 Center     Atomic      Atomic             Coordinates (Angstroms)
 Number     Number       Type             X           Y           Z
 ---------------------------------------------------------------------
      1          6           0       -0.992611    0.000000    0.000000
      2          6           0        0.992713    0.000000    0.000000
      3          1           0        1.289148   -0.903792    0.523004
      4          1           0       -1.289048   -0.904813   -0.521241
      5          1           0        1.289151    0.904812    0.521240
      6          1           0        1.289204   -0.001020   -1.044191
      7          1           0       -1.289046    0.903792   -0.523004
      8          1           0       -1.289105    0.001019    1.044190
 ---------------------------------------------------------------------

 Alpha  occ. eigenvalues --  -10.54425 -10.54415  -0.79312  -0.72389  -0.48464
 Alpha  occ. eigenvalues --   -0.48464  -0.44095  -0.44094  -0.33848
 Alpha virt. eigenvalues --    0.02318   0.02860   0.05637   0.05637   0.08512
 Alpha virt. eigenvalues --    0.08512   0.09450   0.11885   0.14002   0.18224
 Alpha virt. eigenvalues --    0.18225   0.21997   0.21998   0.24287   0.27079

  Beta  occ. eigenvalues --  -10.54425 -10.54415  -0.79312  -0.72389  -0.48464
  Beta  occ. eigenvalues --   -0.48464  -0.44095  -0.44094  -0.33848
  Beta virt. eigenvalues --    0.02318   0.02860   0.05637   0.05637   0.08512
  Beta virt. eigenvalues --    0.08512   0.09450   0.11885   0.14002   0.18224
  Beta virt. eigenvalues --    0.18225   0.21997   0.21998   0.24287   0.27079

 Mulliken charges and spin densities:
               1          2
     1  C   -0.496403  -0.000000
     2  C   -0.496403   0.000000
     3  H    0.165468   0.000000
     4  H    0.165468   0.000000
     5  H    0.165468   0.000000
     6  H    0.165467  -0.000000
     7  H    0.165468   0.000000
     8  H    0.165467   0.000000
 Sum of Mulliken charges =  -0.00000   0.00000

 Dipole moment (field-independent basis, Debye):
    X=             -0.0000    Y=              0.0000    Z=              0.0000  Tot=              0.0000
 Quadrupole moment (field-independent basis, Debye-Ang):
   XX=            -15.5956   YY=            -14.8879   ZZ=            -14.8878
   XY=              0.0000   XZ=             -0.0001   YZ=              0.0000

 Normal termination of Gaussian 16 at Tue Nov 19 12:05:18 2024.
