 Gaussian 16, Revision A.03,
 Gaussian 16:  ES64L-G16RevA.03 25-Dec-2016

 --------------------------------------------
 #p opt UM062X/6-311+G** nosymm int=superfine
 --------------------------------------------

 -------------------
 Title Card Required
 -------------------
 Symbolic Z-matrix:
 Charge =  0 Multiplicity = 3

 SCF Done:  E(UM062X) =  -50.5083783159     A.U. after   13 cycles
 SCF Done:  E(UM062X) =  -50.5093371140     A.U. after   10 cycles
 SCF Done:  E(UM062X) =  -50.5093444645     A.U. after    8 cycles
 Optimization completed.
    -- Stationary point found.

                          Input orientation:
 ---------------------------------------------------------------------
 Center     Atomic      Atomic             Coordinates (Angstroms)
 Number     Number       Type             X           Y           Z
 ---------------------------------------------------------------------
      1          5           0       -1.553410    0.000000    0.000000
      2          5           0        1.553410    0.000000    0.000000
      3          1           0       -2.759638   -0.000082   -0.000000
      4          1           0        2.759638    0.000082    0.000000
 ---------------------------------------------------------------------

 Alpha  occ. eigenvalues --   -7.13810  -7.13809  -0.56668  -0.56084  -0.35272
 Alpha  occ. eigenvalues --   -0.27245  -0.18803
 Alpha virt. eigenvalues --   -0.08226  -0.06753  -0.04375   0.02633   0.02743
 Alpha virt. eigenvalues --    0.06012   0.07194   0.07231   0.08127   0.08240
 Alpha virt. eigenvalues --    0.12097   0.19087   0.22899   0.35733   0.39108

  Beta  occ. eigenvalues --   -7.12875  -7.12873  -0.53247  -0.52893  -0.26644
  Beta virt. eigenvalues --   -0.07088  -0.04915  -0.04416  -0.02043  -0.01630
  Beta virt. eigenvalues --    0.01663   0.02673   0.06936   0.07048   0.07355
  Beta virt. eigenvalues --    0.08492   0.09613   0.09833   0.20337   0.24166

 Mulliken charges and spin densities:
               1          2
     1  B   -0.066882   0.914968
     2  B   -0.066882   0.914968
     3  H    0.066882   0.085032
     4  H    0.066882   0.085032
 Sum of Mulliken charges =  -0.00000   2.00000

 Dipole moment (field-independent basis, Debye):
    X=             -0.0000    Y=             -0.0000    Z=             -0.0000  Tot=              0.0000
 Quadrupole moment (field-independent basis, Debye-Ang):
   XX=            -10.1807   YY=            -13.5187   ZZ=            -17.5761
   XY=              0.0000   XZ=              0.0000   YZ=              0.0018

 1\1\GINC-NODE03\FOpt\UM062X\6-311+G(d,p)\B2H2(3)\SZHAO\21-Apr-2025\0\\
 #p opt UM062X/6-311+G** nosymm int=superfine\\Title Card Required\\0,3
 \B,-1.55341047,0.,0.\B,1.55341047,0.,0.\H,-2.7596378511,-0.000082252,-
 0.000000037\H,2.7596378516,0.0000822518,0.0000000369\\Version=ES64L-G1
 6RevA.03\HF=-50.5093445\S2=2.012256\S2-1=0.\S2A=2.000012\RMSD=3.443e-0
 9\RMSF=8.272e-07\Dipole=-0.0000012,0.,0.\Quadrupole=2.6600136,0.178270
 6,-2.8382842,0.0000333,0.,0.0013534\PG=C*V [C*(H1B1B1H1)]\\@

 Normal termination of Gaussian 16 at Mon Apr 21 17:24:00 2025.
