 Gaussian 16, Revision A.03,
 Gaussian 16:  ES64L-G16RevA.03 25-Dec-2016

 ---------------------------------------------------
 #p UM062X/6-311+G** force int=superfine pop=saveNBO
 ---------------------------------------------------

 -------------------
 Title Card Required
 -------------------
 Symbolic Z-matrix:
 Charge =  0 Multiplicity = 1

                         Standard orientation:
 ---------------------------------------------------------------------
 Center     Atomic      Atomic             Coordinates (Angstroms)
 Number     Number       Type             X           Y           Z
 ---------------------------------------------------------------------
      1         14           0       -0.000000    0.000000    0.978705
      2         14           0        0.000000    0.000000   -0.978705
      3          1           0        0.000000    0.000000    2.437080
      4          1           0       -0.000000    0.000000   -2.437080
 ---------------------------------------------------------------------

 SCF Done:  E(UM062X) =  -579.997246975     A.U. after    8 cycles

 The electronic state is 1-SG.
 Alpha  occ. eigenvalues --  -67.01134 -67.01134  -5.56420  -5.56350  -3.87620
 Alpha  occ. eigenvalues --   -3.87496  -3.87496  -3.87454  -3.87454  -3.87260
 Alpha  occ. eigenvalues --   -0.63083  -0.54444  -0.43914  -0.25871  -0.25871
 Alpha virt. eigenvalues --   -0.04156  -0.03037  -0.03037   0.01575   0.02574
 Alpha virt. eigenvalues --    0.04000   0.04800   0.04800   0.07460   0.07460
 Alpha virt. eigenvalues --    0.12092   0.16453   0.23376   0.28175   0.28742

  Beta  occ. eigenvalues --  -67.01134 -67.01134  -5.56420  -5.56350  -3.87620
  Beta  occ. eigenvalues --   -3.87496  -3.87496  -3.87454  -3.87454  -3.87260
  Beta  occ. eigenvalues --   -0.63083  -0.54444  -0.43914  -0.25871  -0.25871
  Beta virt. eigenvalues --   -0.04156  -0.03037  -0.03037   0.01575   0.02574
  Beta virt. eigenvalues --    0.04000   0.04800   0.04800   0.07460   0.07460
  Beta virt. eigenvalues --    0.12092   0.16453   0.23376   0.28175   0.28742

 Mulliken charges and spin densities:
               1          2
     1  Si  -0.014329   0.000000
     2  Si  -0.014329  -0.000000
     3  H    0.014329  -0.000000
     4  H    0.014329   0.000000
 Sum of Mulliken charges =   0.00000   0.00000

 Dipole moment (field-independent basis, Debye):
    X=              0.0000    Y=             -0.0000    Z=             -0.0000  Tot=              0.0000
 Quadrupole moment (field-independent basis, Debye-Ang):
   XX=            -30.2715   YY=            -30.2715   ZZ=            -20.5878
   XY=             -0.0000   XZ=             -0.0000   YZ=              0.0000

 Summary of Natural Population Analysis:

                                       Natural Population
                Natural  -----------------------------------------------
    Atom  No    Charge         Core      Valence    Rydberg      Total
 -----------------------------------------------------------------------
     Si    1    0.02251      4.99773     1.97224    0.00752     6.97749
     Si    2    0.02251      4.99773     1.97224    0.00752     6.97749
      H    3   -0.02251      0.00000     0.52094    0.00157     0.52251
      H    4   -0.02251      0.00000     0.52094    0.00157     0.52251
 =======================================================================
   * Total *   -0.00000      9.99547     4.98635    0.01818    15.00000

 Optimization completed.
    -- Stationary point found.
 Normal termination of Gaussian 16 at Wed Apr 16 05:50:59 2025.
