 Gaussian 16, Revision A.03,
 Gaussian 16:  ES64L-G16RevA.03 25-Dec-2016

 --------------------------------------------
 #p opt UM062X/6-311+G** nosymm int=superfine
 --------------------------------------------

 -------------------
 Title Card Required
 -------------------
 Symbolic Z-matrix:
 Charge =  0 Multiplicity = 1

 SCF Done:  E(UM062X) =  -114.091857480     A.U. after   13 cycles
 SCF Done:  E(UM062X) =  -114.093794042     A.U. after   10 cycles
 SCF Done:  E(UM062X) =  -114.094402652     A.U. after    9 cycles
 SCF Done:  E(UM062X) =  -114.094407527     A.U. after    8 cycles
 Optimization completed.
    -- Stationary point found.

                          Input orientation:
 ---------------------------------------------------------------------
 Center     Atomic      Atomic             Coordinates (Angstroms)
 Number     Number       Type             X           Y           Z
 ---------------------------------------------------------------------
      1          6           0       -1.648311    0.000000    0.000000
      2          8           0        1.648311    0.000000    0.000000
      3          1           0       -2.318836   -0.877060    0.000000
      4          1           0       -2.318840    0.877056    0.000001
 ---------------------------------------------------------------------

 Alpha  occ. eigenvalues --  -19.72812 -10.64053  -1.02722  -0.78075  -0.50690
 Alpha  occ. eigenvalues --   -0.41595  -0.41587  -0.33666
 Alpha virt. eigenvalues --   -0.16008  -0.10417   0.01441   0.05814   0.07665
 Alpha virt. eigenvalues --    0.08144   0.15651   0.17304   0.17979   0.20358
 Alpha virt. eigenvalues --    0.22771   0.27046   0.43111   0.46261   0.56908

  Beta  occ. eigenvalues --  -19.72812 -10.64053  -1.02722  -0.78075  -0.50690
  Beta  occ. eigenvalues --   -0.41595  -0.41587  -0.33666
  Beta virt. eigenvalues --   -0.16008  -0.10417   0.01441   0.05814   0.07665
  Beta virt. eigenvalues --    0.08144   0.15651   0.17304   0.17979   0.20358
  Beta virt. eigenvalues --    0.22771   0.27046   0.43111   0.46261   0.56908

 Mulliken charges and spin densities:
               1          2
     1  C   -0.254653  -0.000000
     2  O   -0.049892   0.000000
     3  H    0.152273   0.000000
     4  H    0.152273   0.000000
 Sum of Mulliken charges =  -0.00000  -0.00000

 Dipole moment (field-independent basis, Debye):
    X=             -3.2614    Y=             -0.0000    Z=              0.0000  Tot=              3.2614
 Quadrupole moment (field-independent basis, Debye-Ang):
   XX=             -5.8682   YY=            -12.9943   ZZ=            -12.5032
   XY=              0.0000   XZ=             -0.0000   YZ=             -0.0000

 Normal termination of Gaussian 16 at Mon Apr 21 18:45:24 2025.
