 Gaussian 16, Revision A.03,
 Gaussian 16:  ES64L-G16RevA.03 25-Dec-2016

 --------------------------------------------
 #p opt UM062X/6-311+G** nosymm int=superfine
 --------------------------------------------

 -------------------
 Title Card Required
 -------------------
 Symbolic Z-matrix:
 Charge =  1 Multiplicity = 2

 SCF Done:  E(UM062X) =  -78.1803394343     A.U. after    9 cycles
 SCF Done:  E(UM062X) =  -78.1811735774     A.U. after    8 cycles
 SCF Done:  E(UM062X) =  -78.1812188361     A.U. after    7 cycles
 Optimization completed.
    -- Stationary point found.

                          Input orientation:
 ---------------------------------------------------------------------
 Center     Atomic      Atomic             Coordinates (Angstroms)
 Number     Number       Type             X           Y           Z
 ---------------------------------------------------------------------
      1          6           0       -0.678616    0.000000    0.000000
      2          6           0        0.678616    0.000000    0.000000
      3          1           0       -1.241998   -0.930108    0.000000
      4          1           0       -1.242132    0.929943    0.000000
      5          1           0        1.241998    0.930108   -0.000000
      6          1           0        1.242132   -0.929943   -0.000000
 ---------------------------------------------------------------------

 Alpha  occ. eigenvalues --  -10.89193 -10.89089  -1.20334  -0.97449  -0.85467
 Alpha  occ. eigenvalues --   -0.80609  -0.72111  -0.68197
 Alpha virt. eigenvalues --   -0.28414  -0.14734  -0.12757  -0.12533  -0.09900
 Alpha virt. eigenvalues --   -0.07844  -0.06801  -0.04870  -0.04408  -0.02694
 Alpha virt. eigenvalues --   -0.00389   0.02434   0.09719   0.11052   0.20709

  Beta  occ. eigenvalues --  -10.88957 -10.88868  -1.16219  -0.95548  -0.84279
  Beta  occ. eigenvalues --   -0.79685  -0.71804
  Beta virt. eigenvalues --   -0.43054  -0.21568  -0.16474  -0.12813  -0.12505
  Beta virt. eigenvalues --   -0.10469  -0.08740  -0.06860  -0.04800  -0.03515
  Beta virt. eigenvalues --   -0.02231  -0.00675   0.02575   0.10927   0.11508

 Mulliken charges and spin densities:
               1          2
     1  C   -0.049851   0.537373
     2  C   -0.049851   0.537373
     3  H    0.274921  -0.018688
     4  H    0.274930  -0.018685
     5  H    0.274921  -0.018688
     6  H    0.274930  -0.018685
 Sum of Mulliken charges =   1.00000   1.00000

 Dipole moment (field-independent basis, Debye):
    X=              0.0000    Y=              0.0000    Z=              0.0000  Tot=              0.0000
 Quadrupole moment (field-independent basis, Debye-Ang):
   XX=             -5.7818   YY=             -8.4762   ZZ=            -11.3723
   XY=             -0.0001   XZ=             -0.0000   YZ=              0.0000

 Normal termination of Gaussian 16 at Tue Nov 19 10:58:54 2024.
