 Gaussian 16, Revision A.03,
 Gaussian 16:  ES64L-G16RevA.03 25-Dec-2016

 --------------------------------------------
 #p opt UM062X/6-311+G** nosymm int=superfine
 --------------------------------------------

 -------------------
 Title Card Required
 -------------------
 Symbolic Z-matrix:
 Charge =  1 Multiplicity = 2

 SCF Done:  E(UM062X) =  -582.172569156     A.U. after   10 cycles
 SCF Done:  E(UM062X) =  -582.172591205     A.U. after    8 cycles
 SCF Done:  E(UM062X) =  -582.172591909     A.U. after    7 cycles
 Optimization completed.
    -- Stationary point found.

                          Input orientation:
 ---------------------------------------------------------------------
 Center     Atomic      Atomic             Coordinates (Angstroms)
 Number     Number       Type             X           Y           Z
 ---------------------------------------------------------------------
      1         14           0       -1.451292    0.000000    0.000000
      2         14           0        1.451292    0.000000    0.000000
      3          1           0        1.639221   -1.454385    0.000033
      4          1           0       -1.639032   -0.727112    1.259602
      5          1           0        1.639543    0.727217   -1.259461
      6          1           0        1.638880    0.727205    1.259572
      7          1           0       -1.639247    1.454382   -0.000073
      8          1           0       -1.639366   -0.727317   -1.259431
 ---------------------------------------------------------------------

 Alpha  occ. eigenvalues --  -67.24071 -67.24071  -5.78961  -5.78960  -4.10681
 Alpha  occ. eigenvalues --   -4.10675  -4.09846  -4.09846  -4.09846  -4.09846
 Alpha  occ. eigenvalues --   -0.85483  -0.81233  -0.64161  -0.64161  -0.62473
 Alpha  occ. eigenvalues --   -0.62473  -0.51340
 Alpha virt. eigenvalues --   -0.22535  -0.16027  -0.11889  -0.11888  -0.11531
 Alpha virt. eigenvalues --   -0.11132  -0.11131  -0.10028  -0.09182  -0.09182
 Alpha virt. eigenvalues --   -0.07096  -0.06554  -0.06554  -0.03395   0.00556

  Beta  occ. eigenvalues --  -67.23794 -67.23794  -5.78887  -5.78886  -4.09976
  Beta  occ. eigenvalues --   -4.09972  -4.09755  -4.09755  -4.09755  -4.09755
  Beta  occ. eigenvalues --   -0.82809  -0.79616  -0.63635  -0.63635  -0.62116
  Beta  occ. eigenvalues --   -0.62116
  Beta virt. eigenvalues --   -0.33093  -0.18594  -0.15231  -0.11274  -0.11273
  Beta virt. eigenvalues --   -0.10986  -0.10985  -0.10630  -0.09829  -0.08504
  Beta virt. eigenvalues --   -0.08504  -0.06250  -0.06250  -0.04583  -0.02482

 Mulliken charges and spin densities:
               1          2
     1  Si   0.486259   0.528056
     2  Si   0.486259   0.528056
     3  H    0.004581  -0.009355
     4  H    0.004577  -0.009346
     5  H    0.004589  -0.009365
     6  H    0.004571  -0.009336
     7  H    0.004582  -0.009356
     8  H    0.004582  -0.009354
 Sum of Mulliken charges =   1.00000   1.00000

 Dipole moment (field-independent basis, Debye):
    X=              0.0000    Y=              0.0000    Z=             -0.0000  Tot=              0.0000
 Quadrupole moment (field-independent basis, Debye-Ang):
   XX=            -11.3084   YY=            -25.6618   ZZ=            -25.6619
   XY=             -0.0001   XZ=              0.0000   YZ=              0.0000

 Normal termination of Gaussian 16 at Mon Apr 21 20:09:09 2025.
