 Gaussian 16, Revision A.03,
 Gaussian 16:  ES64L-G16RevA.03 25-Dec-2016

 --------------------------------------------
 #p opt UM062X/6-311+G** nosymm int=superfine
 --------------------------------------------

 -------------------
 Title Card Required
 -------------------
 Symbolic Z-matrix:
 Charge =  0 Multiplicity = 1

 SCF Done:  E(UM062X) =  -94.2665662137     A.U. after   15 cycles
 SCF Done:  E(UM062X) =  -94.2710793957     A.U. after   16 cycles
 SCF Done:  E(UM062X) =  -94.2749814362     A.U. after   16 cycles
 SCF Done:  E(UM062X) =  -94.2753928815     A.U. after   17 cycles
 SCF Done:  E(UM062X) =  -94.2755822802     A.U. after   15 cycles
 SCF Done:  E(UM062X) =  -94.2753366836     A.U. after   18 cycles
 SCF Done:  E(UM062X) =  -94.2756048409     A.U. after   17 cycles
 SCF Done:  E(UM062X) =  -94.2756070747     A.U. after   12 cycles
 SCF Done:  E(UM062X) =  -94.2756190521     A.U. after   16 cycles
 SCF Done:  E(UM062X) =  -94.2756223400     A.U. after   14 cycles
 SCF Done:  E(UM062X) =  -94.2756225628     A.U. after   18 cycles
 Optimization completed.
    -- Stationary point found.

                          Input orientation:
 ---------------------------------------------------------------------
 Center     Atomic      Atomic             Coordinates (Angstroms)
 Number     Number       Type             X           Y           Z
 ---------------------------------------------------------------------
      1          6           0       -1.406637    0.000000    0.000000
      2          7           0        1.406637    0.000000    0.000000
      3          1           0       -2.228480   -0.735183    0.000670
      4          1           0        1.218819   -1.017917   -0.000693
      5          1           0       -1.879262    0.994387   -0.000382
 ---------------------------------------------------------------------

 Alpha  occ. eigenvalues --  -14.79353 -10.64812  -0.85779  -0.78503  -0.51448
 Alpha  occ. eigenvalues --   -0.42595  -0.34609  -0.29969
 Alpha virt. eigenvalues --   -0.10826  -0.08073   0.01357   0.05345   0.06766
 Alpha virt. eigenvalues --    0.07637   0.12700   0.14488   0.16881   0.17432
 Alpha virt. eigenvalues --    0.19073   0.20184   0.26428   0.42638   0.45866

  Beta  occ. eigenvalues --  -14.79353 -10.64812  -0.85779  -0.78503  -0.51448
  Beta  occ. eigenvalues --   -0.42595  -0.34609  -0.29969
  Beta virt. eigenvalues --   -0.10826  -0.08073   0.01357   0.05345   0.06766
  Beta virt. eigenvalues --    0.07637   0.12700   0.14488   0.16881   0.17432
  Beta virt. eigenvalues --    0.19073   0.20184   0.26428   0.42638   0.45866

 Mulliken charges and spin densities:
               1          2
     1  C   -0.289517  -0.000000
     2  N   -0.231167   0.000000
     3  H    0.162637   0.000000
     4  H    0.194350  -0.000000
     5  H    0.163698   0.000000
 Sum of Mulliken charges =  -0.00000  -0.00000

 Dipole moment (field-independent basis, Debye):
    X=             -3.5178    Y=             -1.2057    Z=             -0.0007  Tot=              3.7187
 Quadrupole moment (field-independent basis, Debye-Ang):
   XX=             -9.3366   YY=            -12.6651   ZZ=            -15.0492
   XY=             -2.6824   XZ=             -0.0015   YZ=              0.0019

 Normal termination of Gaussian 16 at Mon Apr 21 18:25:31 2025.
