 Gaussian 16, Revision A.03,
 Gaussian 16:  ES64L-G16RevA.03 25-Dec-2016

 ---------------------------------------------------
 #p UM062X/6-311+G** force int=superfine pop=saveNBO
 ---------------------------------------------------

 -------------------
 Title Card Required
 -------------------
 Symbolic Z-matrix:
 Charge =  0 Multiplicity = 1

                         Standard orientation:
 ---------------------------------------------------------------------
 Center     Atomic      Atomic             Coordinates (Angstroms)
 Number     Number       Type             X           Y           Z
 ---------------------------------------------------------------------
      1          8           0        0.000000    0.000000    1.593562
      2          8           0        0.000000    0.000000   -1.593562
 ---------------------------------------------------------------------

 SCF Done:  E(UM062X) =  -149.799641107     A.U. after   10 cycles

 Unable to determine electronic state:  partially filled degenerate orbitals.
 Alpha  occ. eigenvalues --  -19.82761 -19.82759  -1.10483  -1.09902  -0.48752
 Alpha  occ. eigenvalues --   -0.48433  -0.41065  -0.40056
 Alpha virt. eigenvalues --   -0.30903  -0.29678   0.09503   0.12595   0.14402
 Alpha virt. eigenvalues --    0.14446   0.19153   0.19511   0.19759   0.29066
 Alpha virt. eigenvalues --    0.99889   1.00606   1.01142   1.01372   1.02687

  Beta  occ. eigenvalues --  -19.82761 -19.82759  -1.10483  -1.09902  -0.48752
  Beta  occ. eigenvalues --   -0.48433  -0.41065  -0.40056
  Beta virt. eigenvalues --   -0.30903  -0.29678   0.09503   0.12595   0.14402
  Beta virt. eigenvalues --    0.14446   0.19153   0.19511   0.19759   0.29066
  Beta virt. eigenvalues --    0.99889   1.00606   1.01142   1.01372   1.02687

 Mulliken charges and spin densities:
               1          2
     1  O   -0.000000   0.000000
     2  O   -0.000000   0.000000
 Sum of Mulliken charges =  -0.00000   0.00000

 Dipole moment (field-independent basis, Debye):
    X=             -0.0000    Y=             -0.0000    Z=              0.0000  Tot=              0.0000
 Quadrupole moment (field-independent basis, Debye-Ang):
   XX=            -10.1853   YY=            -12.0337   ZZ=             -9.2036
   XY=              0.0000   XZ=             -0.0000   YZ=              0.0000

 Summary of Natural Population Analysis:

                                       Natural Population
                Natural  -----------------------------------------------
    Atom  No    Charge         Core      Valence    Rydberg      Total
 -----------------------------------------------------------------------
      O    1    0.00000      1.00000     2.99905    0.00095     4.00000
      O    2    0.00000      1.00000     2.99905    0.00095     4.00000
 =======================================================================
   * Total *    0.00000      2.00000     5.99811    0.00189     8.00000

 Normal termination of Gaussian 16 at Mon Apr 21 19:48:46 2025.
