 Gaussian 16, Revision A.03,
 Gaussian 16:  ES64L-G16RevA.03 25-Dec-2016

 --------------------------------------------
 #p opt UM062X/6-311+G** nosymm int=superfine
 --------------------------------------------

 -------------------
 Title Card Required
 -------------------
 Symbolic Z-matrix:
 Charge =  0 Multiplicity = 1

 SCF Done:  E(UM062X) =  -77.3124461372     A.U. after    9 cycles
 SCF Done:  E(UM062X) =  -77.3137859886     A.U. after    8 cycles
 SCF Done:  E(UM062X) =  -77.3138018022     A.U. after    8 cycles
 Optimization completed.
    -- Stationary point found.

                          Input orientation:
 ---------------------------------------------------------------------
 Center     Atomic      Atomic             Coordinates (Angstroms)
 Number     Number       Type             X           Y           Z
 ---------------------------------------------------------------------
      1          6           0       -0.616471    0.000000    0.000000
      2          6           0        0.616471    0.000000    0.000000
      3          1           0       -1.681641   -0.000000    0.000000
      4          1           0        1.681641   -0.000000    0.000000
 ---------------------------------------------------------------------

 Alpha  occ. eigenvalues --  -10.55829 -10.55610  -0.84673  -0.65173  -0.56716
 Alpha  occ. eigenvalues --   -0.35253  -0.35253
 Alpha virt. eigenvalues --    0.02590   0.02765   0.04054   0.04054   0.07690
 Alpha virt. eigenvalues --    0.07690   0.09299   0.14282   0.14282   0.15508
 Alpha virt. eigenvalues --    0.19661   0.24297   0.39121   0.44881   0.57135

  Beta  occ. eigenvalues --  -10.55829 -10.55610  -0.84673  -0.65173  -0.56716
  Beta  occ. eigenvalues --   -0.35253  -0.35253
  Beta virt. eigenvalues --    0.02590   0.02765   0.04054   0.04054   0.07690
  Beta virt. eigenvalues --    0.07690   0.09299   0.14282   0.14282   0.15508
  Beta virt. eigenvalues --    0.19661   0.24297   0.39121   0.44881   0.57135

 Mulliken charges and spin densities:
               1          2
     1  C   -0.181019  -0.000000
     2  C   -0.181019   0.000000
     3  H    0.181019  -0.000000
     4  H    0.181019   0.000000
 Sum of Mulliken charges =  -0.00000   0.00000

 Dipole moment (field-independent basis, Debye):
    X=             -0.0000    Y=             -0.0000    Z=              0.0000  Tot=              0.0000
 Quadrupole moment (field-independent basis, Debye-Ang):
   XX=             -6.7648   YY=            -13.9660   ZZ=            -13.9660
   XY=             -0.0000   XZ=              0.0000   YZ=             -0.0000

 Normal termination of Gaussian 16 at Tue Dec  3 20:03:38 2024.
