 Gaussian 16, Revision A.03,
 Gaussian 16:  ES64L-G16RevA.03 25-Dec-2016

 ---------------------------------------------------
 #p UM062X/6-311+G** force int=superfine pop=saveNBO
 ---------------------------------------------------

 -------------------
 Title Card Required
 -------------------
 Symbolic Z-matrix:
 Charge =  0 Multiplicity = 1

                         Standard orientation:
 ---------------------------------------------------------------------
 Center     Atomic      Atomic             Coordinates (Angstroms)
 Number     Number       Type             X           Y           Z
 ---------------------------------------------------------------------
      1          8           0        0.000000    0.000000   -2.626757
      2         16           0        0.000000    0.000000    1.313379
 ---------------------------------------------------------------------

 SCF Done:  E(UM062X) =  -473.004429525     A.U. after   18 cycles

 Unable to determine electronic state:  partially filled degenerate orbitals.
 Alpha  occ. eigenvalues --  -89.97195 -19.76690  -8.33243  -6.26038  -6.24450
 Alpha  occ. eigenvalues --   -6.24426  -1.06420  -0.77260  -0.45307  -0.45292
 Alpha  occ. eigenvalues --   -0.34506  -0.34412
 Alpha virt. eigenvalues --   -0.19629  -0.19379   0.03584   0.04772   0.05670
 Alpha virt. eigenvalues --    0.05741   0.14756   0.17931   0.18120   0.22311
 Alpha virt. eigenvalues --    0.33670   0.34878   0.35717   0.58800   0.77359

  Beta  occ. eigenvalues --  -89.97195 -19.76690  -8.33243  -6.26038  -6.24450
  Beta  occ. eigenvalues --   -6.24426  -1.06420  -0.77260  -0.45307  -0.45292
  Beta  occ. eigenvalues --   -0.34506  -0.34412
  Beta virt. eigenvalues --   -0.19629  -0.19379   0.03584   0.04772   0.05670
  Beta virt. eigenvalues --    0.05741   0.14756   0.17931   0.18120   0.22311
  Beta virt. eigenvalues --    0.33670   0.34878   0.35717   0.58800   0.77359

 Mulliken charges and spin densities:
               1          2
     1  O   -0.014401  -0.000000
     2  S    0.014401   0.000000
 Sum of Mulliken charges =  -0.00000  -0.00000

 Dipole moment (field-independent basis, Debye):
    X=              0.0000    Y=              0.0000    Z=              0.3725  Tot=              0.3725
 Quadrupole moment (field-independent basis, Debye-Ang):
   XX=            -15.6824   YY=            -21.1339   ZZ=            -19.1337
   XY=              0.0000   XZ=              0.0000   YZ=              0.0000

 Summary of Natural Population Analysis:

                                       Natural Population
                Natural  -----------------------------------------------
    Atom  No    Charge         Core      Valence    Rydberg      Total
 -----------------------------------------------------------------------
      O    1   -0.00829      1.00000     3.00817    0.00012     4.00829
      S    2    0.00829      4.99999     2.99128    0.00044     7.99171
 =======================================================================
   * Total *    0.00000      5.99999     5.99944    0.00057    12.00000

 Normal termination of Gaussian 16 at Mon Apr 21 20:01:24 2025.
