 Gaussian 16, Revision A.03,
 Gaussian 16:  ES64L-G16RevA.03 25-Dec-2016

 --------------------------------------------
 #p opt UM062X/6-311+G** nosymm int=superfine
 --------------------------------------------

 -------------------
 Title Card Required
 -------------------
 Symbolic Z-matrix:
 Charge =  0 Multiplicity = 1

 SCF Done:  E(UM062X) =  -94.2582416903     A.U. after   14 cycles
 SCF Done:  E(UM062X) =  -94.2618871534     A.U. after   17 cycles
 SCF Done:  E(UM062X) =  -94.2644651370     A.U. after   11 cycles
 SCF Done:  E(UM062X) =  -94.2651782426     A.U. after   17 cycles
 SCF Done:  E(UM062X) =  -94.2663598687     A.U. after   18 cycles
 SCF Done:  E(UM062X) =  -94.2665083072     A.U. after   15 cycles
 SCF Done:  E(UM062X) =  -94.2664457540     A.U. after   17 cycles
 SCF Done:  E(UM062X) =  -94.2665191282     A.U. after   21 cycles
 SCF Done:  E(UM062X) =  -94.2665202140     A.U. after   13 cycles
 SCF Done:  E(UM062X) =  -94.2665212245     A.U. after   15 cycles
 SCF Done:  E(UM062X) =  -94.2665240686     A.U. after   14 cycles
 SCF Done:  E(UM062X) =  -94.2665266317     A.U. after   21 cycles
 SCF Done:  E(UM062X) =  -94.2665271506     A.U. after   16 cycles
 Optimization completed.
    -- Stationary point found.

                          Input orientation:
 ---------------------------------------------------------------------
 Center     Atomic      Atomic             Coordinates (Angstroms)
 Number     Number       Type             X           Y           Z
 ---------------------------------------------------------------------
      1          6           0       -1.556637    0.000000    0.000000
      2          7           0        1.556637    0.000000    0.000000
      3          1           0       -2.400510   -0.713025    0.000261
      4          1           0        1.256025   -0.991053   -0.000103
      5          1           0       -2.031081    0.996342    0.000194
 ---------------------------------------------------------------------

 Alpha  occ. eigenvalues --  -14.80321 -10.63752  -0.86662  -0.77888  -0.50429
 Alpha  occ. eigenvalues --   -0.43548  -0.33922  -0.30991
 Alpha virt. eigenvalues --   -0.10297  -0.09528   0.01458   0.05421   0.06978
 Alpha virt. eigenvalues --    0.07747   0.12575   0.14252   0.16373   0.17805
 Alpha virt. eigenvalues --    0.18435   0.19662   0.25626   0.43127   0.46341

  Beta  occ. eigenvalues --  -14.80321 -10.63752  -0.86662  -0.77888  -0.50429
  Beta  occ. eigenvalues --   -0.43548  -0.33922  -0.30991
  Beta virt. eigenvalues --   -0.10297  -0.09528   0.01458   0.05421   0.06978
  Beta virt. eigenvalues --    0.07747   0.12575   0.14252   0.16373   0.17805
  Beta virt. eigenvalues --    0.18435   0.19662   0.25626   0.43127   0.46341

 Mulliken charges and spin densities:
               1          2
     1  C   -0.299834   0.000000
     2  N   -0.211081  -0.000000
     3  H    0.154914  -0.000000
     4  H    0.201636  -0.000000
     5  H    0.154365  -0.000000
 Sum of Mulliken charges =  -0.00000  -0.00000

 Dipole moment (field-independent basis, Debye):
    X=             -3.3316    Y=             -1.1823    Z=              0.0005  Tot=              3.5351
 Quadrupole moment (field-independent basis, Debye-Ang):
   XX=             -9.2925   YY=            -12.7342   ZZ=            -14.9700
   XY=             -3.0402   XZ=             -0.0002   YZ=              0.0000

 Normal termination of Gaussian 16 at Mon Apr 21 18:26:49 2025.
