 Gaussian 16, Revision A.03,
 Gaussian 16:  ES64L-G16RevA.03 25-Dec-2016

 ---------------------------------------------------
 #p UM062X/6-311+G** force int=superfine pop=saveNBO
 ---------------------------------------------------

 -------------------
 Title Card Required
 -------------------
 Symbolic Z-matrix:
 Charge =  0 Multiplicity = 1

                         Standard orientation:
 ---------------------------------------------------------------------
 Center     Atomic      Atomic             Coordinates (Angstroms)
 Number     Number       Type             X           Y           Z
 ---------------------------------------------------------------------
      1          8           0        0.000000    0.000000    0.893562
      2          8           0        0.000000    0.000000   -0.893562
 ---------------------------------------------------------------------

 SCF Done:  E(UM062X) =  -150.053170364     A.U. after    9 cycles

 Unable to determine electronic state:  partially filled degenerate orbitals.
 Alpha  occ. eigenvalues --  -19.83703 -19.83690  -1.17777  -1.05246  -0.52963
 Alpha  occ. eigenvalues --   -0.52285  -0.46839  -0.45619
 Alpha virt. eigenvalues --   -0.25001  -0.14256   0.10413   0.13266   0.15236
 Alpha virt. eigenvalues --    0.15553   0.20811   0.21165   0.21271   0.33307
 Alpha virt. eigenvalues --    0.95565   0.96398   1.00711   1.06776   1.08155

  Beta  occ. eigenvalues --  -19.83703 -19.83690  -1.17777  -1.05246  -0.52963
  Beta  occ. eigenvalues --   -0.52285  -0.46839  -0.45619
  Beta virt. eigenvalues --   -0.25001  -0.14256   0.10413   0.13266   0.15236
  Beta virt. eigenvalues --    0.15553   0.20811   0.21165   0.21271   0.33307
  Beta virt. eigenvalues --    0.95565   0.96398   1.00711   1.06776   1.08155

 Mulliken charges and spin densities:
               1          2
     1  O   -0.000000  -0.000000
     2  O   -0.000000  -0.000000
 Sum of Mulliken charges =  -0.00000  -0.00000

 Dipole moment (field-independent basis, Debye):
    X=              0.0000    Y=             -0.0000    Z=             -0.0000  Tot=              0.0000
 Quadrupole moment (field-independent basis, Debye-Ang):
   XX=            -10.0141   YY=            -11.7391   ZZ=             -9.7892
   XY=              0.0000   XZ=              0.0000   YZ=              0.0000

 Summary of Natural Population Analysis:

                                       Natural Population
                Natural  -----------------------------------------------
    Atom  No    Charge         Core      Valence    Rydberg      Total
 -----------------------------------------------------------------------
      O    1   -0.00000      1.00000     2.99817    0.00183     4.00000
      O    2   -0.00000      1.00000     2.99817    0.00183     4.00000
 =======================================================================
   * Total *   -0.00000      2.00000     5.99635    0.00366     8.00000

 Normal termination of Gaussian 16 at Mon Apr 21 19:53:50 2025.
