 Gaussian 16, Revision A.03,
 Gaussian 16:  ES64L-G16RevA.03 25-Dec-2016

 --------------------------------------------
 #p opt UM062X/6-311+G** nosymm int=superfine
 --------------------------------------------

 -------------------
 Title Card Required
 -------------------
 Symbolic Z-matrix:
 Charge =  0 Multiplicity = 1

 SCF Done:  E(UM062X) =  -115.559121940     A.U. after   12 cycles
 SCF Done:  E(UM062X) =  -115.573059680     A.U. after   11 cycles
 SCF Done:  E(UM062X) =  -115.577554601     A.U. after   11 cycles
 SCF Done:  E(UM062X) =  -115.577588205     A.U. after    9 cycles
 SCF Done:  E(UM062X) =  -115.577601056     A.U. after    9 cycles
 SCF Done:  E(UM062X) =  -115.577601926     A.U. after    8 cycles
 SCF Done:  E(UM062X) =  -115.577602189     A.U. after    8 cycles
 Optimization completed.
    -- Stationary point found.

                          Input orientation:
 ---------------------------------------------------------------------
 Center     Atomic      Atomic             Coordinates (Angstroms)
 Number     Number       Type             X           Y           Z
 ---------------------------------------------------------------------
      1          6           0       -1.157203    0.000000    0.000000
      2          8           0        1.157203    0.000000    0.000000
      3          1           0        1.238873   -0.961665    0.000201
      4          1           0       -1.314461   -0.523882    0.932271
      5          1           0       -1.222938    1.078156   -0.000791
      6          1           0       -1.314531   -0.525252   -0.931490
 ---------------------------------------------------------------------

 Alpha  occ. eigenvalues --  -19.60726 -10.64108  -1.03277  -0.81831  -0.53817
 Alpha  occ. eigenvalues --   -0.53677  -0.47334  -0.34628  -0.34335
 Alpha virt. eigenvalues --   -0.08148   0.01021   0.04519   0.05019   0.06714
 Alpha virt. eigenvalues --    0.14736   0.16732   0.16928   0.20266   0.22907
 Alpha virt. eigenvalues --    0.23219   0.24307   0.32962   0.40642   0.41490

  Beta  occ. eigenvalues --  -19.60726 -10.64108  -1.03277  -0.81831  -0.53817
  Beta  occ. eigenvalues --   -0.53677  -0.47334  -0.34628  -0.34335
  Beta virt. eigenvalues --   -0.08148   0.01021   0.04519   0.05019   0.06714
  Beta virt. eigenvalues --    0.14736   0.16732   0.16928   0.20266   0.22907
  Beta virt. eigenvalues --    0.23219   0.24307   0.32962   0.40642   0.41490

 Mulliken charges and spin densities:
               1          2
     1  C   -0.300948  -0.000000
     2  O   -0.522875   0.000000
     3  H    0.221880  -0.000000
     4  H    0.194913   0.000000
     5  H    0.212137   0.000000
     6  H    0.194893   0.000000
 Sum of Mulliken charges =  -0.00000  -0.00000

 Dipole moment (field-independent basis, Debye):
    X=             -3.7727    Y=             -1.5364    Z=              0.0003  Tot=              4.0736
 Quadrupole moment (field-independent basis, Debye-Ang):
   XX=            -13.3777   YY=            -11.4075   ZZ=            -13.8160
   XY=             -2.2036   XZ=              0.0005   YZ=             -0.0005

 Normal termination of Gaussian 16 at Mon Apr 21 18:41:46 2025.
