 Gaussian 16, Revision A.03,
 Gaussian 16:  ES64L-G16RevA.03 25-Dec-2016

 --------------------------------------------
 #p opt UM062X/6-311+G** nosymm int=superfine
 --------------------------------------------

 -------------------
 Title Card Required
 -------------------
 Symbolic Z-matrix:
 Charge =  0 Multiplicity = 1

 SCF Done:  E(UM062X) =  -684.971462123     A.U. after   11 cycles
 SCF Done:  E(UM062X) =  -684.973336227     A.U. after   10 cycles
 SCF Done:  E(UM062X) =  -684.974364943     A.U. after   11 cycles
 SCF Done:  E(UM062X) =  -684.974458414     A.U. after   10 cycles
 SCF Done:  E(UM062X) =  -684.974496306     A.U. after   10 cycles
 SCF Done:  E(UM062X) =  -684.974515104     A.U. after    9 cycles
 SCF Done:  E(UM062X) =  -684.974536985     A.U. after   10 cycles
 SCF Done:  E(UM062X) =  -684.974577364     A.U. after   10 cycles
 SCF Done:  E(UM062X) =  -684.974623896     A.U. after   11 cycles
 SCF Done:  E(UM062X) =  -684.974665564     A.U. after   12 cycles
 SCF Done:  E(UM062X) =  -684.974698826     A.U. after   10 cycles
 SCF Done:  E(UM062X) =  -684.974696664     A.U. after   12 cycles
 SCF Done:  E(UM062X) =  -684.974721298     A.U. after   11 cycles
 SCF Done:  E(UM062X) =  -684.974722453     A.U. after    9 cycles
 SCF Done:  E(UM062X) =  -684.974723553     A.U. after    8 cycles
 SCF Done:  E(UM062X) =  -684.974723628     A.U. after    7 cycles
 SCF Done:  E(UM062X) =  -684.974723683     A.U. after    8 cycles
 Optimization completed.
    -- Stationary point found.

                          Input orientation:
 ---------------------------------------------------------------------
 Center     Atomic      Atomic             Coordinates (Angstroms)
 Number     Number       Type             X           Y           Z
 ---------------------------------------------------------------------
      1         15           0       -1.692217    0.000000    0.000000
      2         15           0        1.692217    0.000000    0.000000
      3          1           0        1.645130   -1.097706    0.896817
      4          1           0       -1.649121    1.156109    0.820359
      5          1           0        1.647291   -0.857058   -1.129695
      6          1           0       -1.650997    0.778532   -1.185338
 ---------------------------------------------------------------------

 Alpha  occ. eigenvalues --  -78.04775 -78.04772  -6.87117  -6.87115  -4.98668
 Alpha  occ. eigenvalues --   -4.98665  -4.98556  -4.98554  -4.98370  -4.98368
 Alpha  occ. eigenvalues --   -0.71560  -0.70016  -0.45155  -0.44407  -0.36288
 Alpha  occ. eigenvalues --   -0.35705  -0.27423
 Alpha virt. eigenvalues --   -0.10988   0.01611   0.03049   0.03323   0.04100
 Alpha virt. eigenvalues --    0.04890   0.05590   0.06165   0.06191   0.06545
 Alpha virt. eigenvalues --    0.08621   0.15995   0.18798   0.28110   0.28362

  Beta  occ. eigenvalues --  -78.04775 -78.04772  -6.87117  -6.87115  -4.98668
  Beta  occ. eigenvalues --   -4.98665  -4.98556  -4.98554  -4.98370  -4.98368
  Beta  occ. eigenvalues --   -0.71560  -0.70016  -0.45155  -0.44407  -0.36288
  Beta  occ. eigenvalues --   -0.35705  -0.27423
  Beta virt. eigenvalues --   -0.10988   0.01611   0.03049   0.03323   0.04100
  Beta virt. eigenvalues --    0.04890   0.05590   0.06165   0.06191   0.06545
  Beta virt. eigenvalues --    0.08621   0.15995   0.18798   0.28110   0.28362

 Mulliken charges and spin densities:
               1          2
     1  P   -0.033864   0.000003
     2  P   -0.033184  -0.000003
     3  H    0.018261   0.000000
     4  H    0.018229  -0.000000
     5  H    0.015286   0.000000
     6  H    0.015272  -0.000000
 Sum of Mulliken charges =  -0.00000  -0.00000

 Dipole moment (field-independent basis, Debye):
    X=             -0.0005    Y=             -0.0095    Z=             -0.2494  Tot=              0.2496
 Quadrupole moment (field-independent basis, Debye-Ang):
   XX=            -29.3051   YY=            -31.0847   ZZ=            -28.4509
   XY=             -3.7344   XZ=              0.1271   YZ=              0.0899

 Normal termination of Gaussian 16 at Mon Apr 21 20:50:08 2025.
