 Gaussian 16, Revision A.03,
 Gaussian 16:  ES64L-G16RevA.03 25-Dec-2016

 --------------------------------------------
 #p opt UM062X/6-311+G** nosymm int=superfine
 --------------------------------------------

 -------------------
 Title Card Required
 -------------------
 Symbolic Z-matrix:
 Charge =  0 Multiplicity = 1

 SCF Done:  E(UM062X) =  -95.6948777281     A.U. after   12 cycles
 SCF Done:  E(UM062X) =  -95.7109674392     A.U. after   11 cycles
 SCF Done:  E(UM062X) =  -95.7168522914     A.U. after   11 cycles
 SCF Done:  E(UM062X) =  -95.7169278451     A.U. after   10 cycles
 SCF Done:  E(UM062X) =  -95.7169360812     A.U. after    9 cycles
 SCF Done:  E(UM062X) =  -95.7169394781     A.U. after    9 cycles
 Optimization completed.
    -- Stationary point found.

                          Input orientation:
 ---------------------------------------------------------------------
 Center     Atomic      Atomic             Coordinates (Angstroms)
 Number     Number       Type             X           Y           Z
 ---------------------------------------------------------------------
      1          6           0       -1.180542    0.000000    0.000000
      2          7           0        1.180542    0.000000    0.000000
      3          1           0        1.244616   -1.013134    0.132082
      4          1           0       -1.321325    1.071469    0.000280
      5          1           0        1.244552    0.373282    0.951087
      6          1           0       -1.321165   -0.512590   -0.940918
      7          1           0       -1.415725   -0.539348    0.907726
 ---------------------------------------------------------------------

 Alpha  occ. eigenvalues --  -14.74971 -10.59791  -0.90742  -0.78607  -0.51860
 Alpha  occ. eigenvalues --   -0.50714  -0.49456  -0.36404  -0.30830
 Alpha virt. eigenvalues --   -0.04813   0.01533   0.05058   0.05689   0.06976
 Alpha virt. eigenvalues --    0.10788   0.13566   0.16014   0.16599   0.18090
 Alpha virt. eigenvalues --    0.20676   0.22226   0.22248   0.31819   0.41638

  Beta  occ. eigenvalues --  -14.74971 -10.59791  -0.90742  -0.78607  -0.51860
  Beta  occ. eigenvalues --   -0.50714  -0.49456  -0.36404  -0.30830
  Beta virt. eigenvalues --   -0.04813   0.01533   0.05058   0.05689   0.06976
  Beta virt. eigenvalues --    0.10788   0.13566   0.16014   0.16599   0.18090
  Beta virt. eigenvalues --    0.20676   0.22226   0.22248   0.31819   0.41638

 Mulliken charges and spin densities:
               1          2
     1  C   -0.428840  -0.000000
     2  N   -0.587017   0.000000
     3  H    0.231114  -0.000000
     4  H    0.189787  -0.000000
     5  H    0.231104  -0.000000
     6  H    0.189874  -0.000000
     7  H    0.173979   0.000000
 Sum of Mulliken charges =  -0.00000   0.00000

 Dipole moment (field-independent basis, Debye):
    X=             -2.0382    Y=             -0.9134    Z=              1.5463  Tot=              2.7166
 Quadrupole moment (field-independent basis, Debye-Ang):
   XX=            -15.2211   YY=            -13.2934   ZZ=            -14.1400
   XY=             -1.3658   XZ=              2.3119   YZ=              0.7684

 Normal termination of Gaussian 16 at Mon Apr 21 18:11:37 2025.
