 Gaussian 16, Revision A.03,
 Gaussian 16:  ES64L-G16RevA.03 25-Dec-2016

 --------------------------------------------
 #p opt UM062X/6-311+G** nosymm int=superfine
 --------------------------------------------

 -------------------
 Title Card Required
 -------------------
 Symbolic Z-matrix:
 Charge =  0 Multiplicity = 1

 SCF Done:  E(UM062X) =  -379.908219802     A.U. after   11 cycles
 SCF Done:  E(UM062X) =  -379.908267954     A.U. after    9 cycles
 Optimization completed.
    -- Stationary point found.

                          Input orientation:
 ---------------------------------------------------------------------
 Center     Atomic      Atomic             Coordinates (Angstroms)
 Number     Number       Type             X           Y           Z
 ---------------------------------------------------------------------
      1          6           0       -0.915377    0.000000    0.000000
      2         15           0        0.915377    0.000000    0.000000
      3          1           0       -1.997637    0.000000    0.000000
 ---------------------------------------------------------------------

 Alpha  occ. eigenvalues --  -78.07434 -10.63200  -6.89220  -5.00629  -5.00629
 Alpha  occ. eigenvalues --   -5.00566  -0.76797  -0.62958  -0.42724  -0.30978
 Alpha  occ. eigenvalues --   -0.30978
 Alpha virt. eigenvalues --   -0.06065  -0.06065   0.01217   0.02393   0.05026
 Alpha virt. eigenvalues --    0.05026   0.07050   0.08700   0.10782   0.10782
 Alpha virt. eigenvalues --    0.16311   0.22585   0.32777   0.32777   0.33920

  Beta  occ. eigenvalues --  -78.07434 -10.63200  -6.89220  -5.00629  -5.00629
  Beta  occ. eigenvalues --   -5.00566  -0.76797  -0.62958  -0.42724  -0.30978
  Beta  occ. eigenvalues --   -0.30978
  Beta virt. eigenvalues --   -0.06065  -0.06065   0.01217   0.02393   0.05026
  Beta virt. eigenvalues --    0.05026   0.07050   0.08700   0.10782   0.10782
  Beta virt. eigenvalues --    0.16311   0.22585   0.32777   0.32777   0.33920

 Mulliken charges and spin densities:
               1          2
     1  C   -0.308899  -0.000000
     2  P    0.100635   0.000000
     3  H    0.208263  -0.000000
 Sum of Mulliken charges =  -0.00000  -0.00000

 Dipole moment (field-independent basis, Debye):
    X=             -0.3011    Y=              0.0000    Z=             -0.0000  Tot=              0.3011
 Quadrupole moment (field-independent basis, Debye-Ang):
   XX=            -14.8695   YY=            -21.2694   ZZ=            -21.2694
   XY=             -0.0000   XZ=              0.0000   YZ=             -0.0000

 Normal termination of Gaussian 16 at Mon Apr 21 19:23:38 2025.
