 Gaussian 16, Revision A.03,
 Gaussian 16:  ES64L-G16RevA.03 25-Dec-2016

 --------------------------------------------
 #p opt UM062X/6-311+G** nosymm int=superfine
 --------------------------------------------

 -------------------
 Title Card Required
 -------------------
 Symbolic Z-matrix:
 Charge =  0 Multiplicity = 1

 SCF Done:  E(UM062X) =  -151.491385578     A.U. after   13 cycles
 SCF Done:  E(UM062X) =  -151.495452176     A.U. after   15 cycles
 SCF Done:  E(UM062X) =  -151.495760825     A.U. after   14 cycles
 SCF Done:  E(UM062X) =  -151.495797595     A.U. after   12 cycles
 SCF Done:  E(UM062X) =  -151.495797836     A.U. after   10 cycles
 Optimization completed.
    -- Stationary point found.

                          Input orientation:
 ---------------------------------------------------------------------
 Center     Atomic      Atomic             Coordinates (Angstroms)
 Number     Number       Type             X           Y           Z
 ---------------------------------------------------------------------
      1          8           0       -0.886938    0.000000    0.000000
      2          8           0        0.886938    0.000000    0.000000
      3          1           0       -0.921881   -0.921610   -0.295415
      4          1           0        0.921874    0.606168    0.754451
 ---------------------------------------------------------------------

 Alpha  occ. eigenvalues --  -19.71158 -19.71150  -1.18270  -1.07223  -0.58580
 Alpha  occ. eigenvalues --   -0.55494  -0.47607  -0.45466  -0.39896
 Alpha virt. eigenvalues --   -0.08573   0.05701   0.10186   0.15178   0.16421
 Alpha virt. eigenvalues --    0.17840   0.20225   0.21647   0.22326   0.25821
 Alpha virt. eigenvalues --    0.33404   0.49515   0.53413   0.94867   0.99329

  Beta  occ. eigenvalues --  -19.71158 -19.71150  -1.18270  -1.07223  -0.58580
  Beta  occ. eigenvalues --   -0.55494  -0.47607  -0.45466  -0.39896
  Beta virt. eigenvalues --   -0.08573   0.05701   0.10186   0.15178   0.16421
  Beta virt. eigenvalues --    0.17840   0.20225   0.21647   0.22326   0.25821
  Beta virt. eigenvalues --    0.33404   0.49515   0.53413   0.94867   0.99329

 Mulliken charges and spin densities:
               1          2
     1  O   -0.273351   0.000000
     2  O   -0.273351  -0.000000
     3  H    0.273351  -0.000000
     4  H    0.273351   0.000000
 Sum of Mulliken charges =  -0.00000  -0.00000

 Dipole moment (field-independent basis, Debye):
    X=             -0.0000    Y=             -0.5915    Z=              0.8607  Tot=              1.0444
 Quadrupole moment (field-independent basis, Debye-Ang):
   XX=            -11.7859   YY=            -10.0924   ZZ=            -11.6413
   XY=              3.0142   XZ=              2.0713   YZ=              2.0167

 Normal termination of Gaussian 16 at Mon Apr 21 21:34:48 2025.
