 Gaussian 16, Revision A.03,
 Gaussian 16:  ES64L-G16RevA.03 25-Dec-2016

 ---------------------------------------
 #p UM062X/6-311+G** force int=superfine
 ---------------------------------------

 -------------------
 Title Card Required
 -------------------
 Symbolic Z-matrix:
 Charge =  0 Multiplicity = 1

                         Standard orientation:
 ---------------------------------------------------------------------
 Center     Atomic      Atomic             Coordinates (Angstroms)
 Number     Number       Type             X           Y           Z
 ---------------------------------------------------------------------
      1          7           0        0.000000    0.000000    0.670048
      2          7           0        0.000000    0.000000   -0.670048
 ---------------------------------------------------------------------

 SCF Done:  E(UM062X) =  -109.411118287     A.U. after    9 cycles

 The electronic state is 1-SGG.
 Alpha  occ. eigenvalues --  -14.91939 -14.91867  -1.11374  -0.71053  -0.49776
 Alpha  occ. eigenvalues --   -0.47206  -0.47206
 Alpha virt. eigenvalues --   -0.06829  -0.06829   0.07991   0.08130   0.10852
 Alpha virt. eigenvalues --    0.10852   0.15381   0.16813   0.16813   0.26528
 Alpha virt. eigenvalues --    0.32002   0.75747   0.77612   0.77612   0.80741

  Beta  occ. eigenvalues --  -14.91939 -14.91867  -1.11374  -0.71053  -0.49776
  Beta  occ. eigenvalues --   -0.47206  -0.47206
  Beta virt. eigenvalues --   -0.06829  -0.06829   0.07991   0.08130   0.10852
  Beta virt. eigenvalues --    0.10852   0.15381   0.16813   0.16813   0.26528
  Beta virt. eigenvalues --    0.32002   0.75747   0.77612   0.77612   0.80741

 Mulliken charges and spin densities:
               1          2
     1  N   -0.000000  -0.000000
     2  N   -0.000000  -0.000000
 Sum of Mulliken charges =  -0.00000  -0.00000

 Dipole moment (field-independent basis, Debye):
    X=             -0.0000    Y=              0.0000    Z=              0.0000  Tot=              0.0000
 Quadrupole moment (field-independent basis, Debye-Ang):
   XX=            -11.0387   YY=            -11.0387   ZZ=            -12.0011
   XY=              0.0000   XZ=              0.0000   YZ=             -0.0000

 Optimization completed.
    -- Stationary point found.
 Normal termination of Gaussian 16 at Wed Feb 26 13:45:19 2025.
