 Gaussian 16, Revision A.03,
 Gaussian 16:  ES64L-G16RevA.03 25-Dec-2016

 ---------------------------------------------------
 #p UM062X/6-311+G** force int=superfine pop=saveNBO
 ---------------------------------------------------

 -------------------
 Title Card Required
 -------------------
 Symbolic Z-matrix:
 Charge =  0 Multiplicity = 1

                         Standard orientation:
 ---------------------------------------------------------------------
 Center     Atomic      Atomic             Coordinates (Angstroms)
 Number     Number       Type             X           Y           Z
 ---------------------------------------------------------------------
      1         15           0        0.000000    0.000000    2.088495
      2         15           0        0.000000    0.000000   -2.088495
 ---------------------------------------------------------------------

 SCF Done:  E(UM062X) =  -682.274279091     A.U. after    9 cycles

 The electronic state is 1-SGG.
 Alpha  occ. eigenvalues --  -78.11898 -78.11898  -6.93560  -6.93559  -5.04856
 Alpha  occ. eigenvalues --   -5.04856  -5.04843  -5.04843  -5.04843  -5.04843
 Alpha  occ. eigenvalues --   -0.64224  -0.63249  -0.26482  -0.24914  -0.24914
 Alpha virt. eigenvalues --   -0.17752  -0.17752  -0.16023   0.02301   0.03333
 Alpha virt. eigenvalues --    0.04419   0.04419   0.06336   0.06336   0.06392
 Alpha virt. eigenvalues --    0.10315   0.29503   0.29836   0.29836   0.32757

  Beta  occ. eigenvalues --  -78.11898 -78.11898  -6.93560  -6.93559  -5.04856
  Beta  occ. eigenvalues --   -5.04856  -5.04843  -5.04843  -5.04843  -5.04843
  Beta  occ. eigenvalues --   -0.64224  -0.63249  -0.26482  -0.24914  -0.24914
  Beta virt. eigenvalues --   -0.17752  -0.17752  -0.16023   0.02301   0.03333
  Beta virt. eigenvalues --    0.04419   0.04419   0.06336   0.06336   0.06392
  Beta virt. eigenvalues --    0.10315   0.29503   0.29836   0.29836   0.32757

 Mulliken charges and spin densities:
               1          2
     1  P   -0.000000  -0.000000
     2  P   -0.000000  -0.000000
 Sum of Mulliken charges =  -0.00000  -0.00000

 Dipole moment (field-independent basis, Debye):
    X=              0.0000    Y=             -0.0000    Z=             -0.0000  Tot=              0.0000
 Quadrupole moment (field-independent basis, Debye-Ang):
   XX=            -29.4205   YY=            -29.4205   ZZ=            -24.4277
   XY=              0.0000   XZ=             -0.0000   YZ=              0.0000

 Summary of Natural Population Analysis:

                                       Natural Population
                Natural  -----------------------------------------------
    Atom  No    Charge         Core      Valence    Rydberg      Total
 -----------------------------------------------------------------------
      P    1   -0.00000      5.00000     2.49945    0.00055     7.50000
      P    2   -0.00000      5.00000     2.49945    0.00055     7.50000
 =======================================================================
   * Total *   -0.00000     10.00000     4.99890    0.00110    15.00000

 Normal termination of Gaussian 16 at Mon Apr 21 21:22:41 2025.
