 Gaussian 16, Revision A.03,
 Gaussian 16:  ES64L-G16RevA.03 25-Dec-2016

 --------------------------------------------
 #p opt UM062X/6-311+G** nosymm int=superfine
 --------------------------------------------

 -------------------
 Title Card Required
 -------------------
 Symbolic Z-matrix:
 Charge =  0 Multiplicity = 1

 SCF Done:  E(UM062X) =  -582.362687522     A.U. after   10 cycles
 SCF Done:  E(UM062X) =  -582.365028162     A.U. after    9 cycles
 SCF Done:  E(UM062X) =  -582.365730317     A.U. after    9 cycles
 SCF Done:  E(UM062X) =  -582.365730766     A.U. after    7 cycles
 Optimization completed.
    -- Stationary point found.

                          Input orientation:
 ---------------------------------------------------------------------
 Center     Atomic      Atomic             Coordinates (Angstroms)
 Number     Number       Type             X           Y           Z
 ---------------------------------------------------------------------
      1         14           0       -2.494819    0.000000    0.000000
      2         14           0        2.494819    0.000000    0.000000
      3          1           0        2.893545   -1.421133   -0.000055
      4          1           0       -2.893315   -0.710544    1.230828
      5          1           0        2.893452    0.710720   -1.230683
      6          1           0        2.893324    0.710597    1.230795
      7          1           0       -2.893548    1.421132   -0.000111
      8          1           0       -2.893458   -0.710775   -1.230649
 ---------------------------------------------------------------------

 Alpha  occ. eigenvalues --  -67.01914 -67.01914  -5.56836  -5.56836  -3.88072
 Alpha  occ. eigenvalues --   -3.88072  -3.87824  -3.87824  -3.87824  -3.87824
 Alpha  occ. eigenvalues --   -0.61193  -0.60995  -0.42194  -0.42193  -0.42163
 Alpha  occ. eigenvalues --   -0.42162  -0.21090
 Alpha virt. eigenvalues --   -0.11775   0.01957   0.02971   0.02971   0.03203
 Alpha virt. eigenvalues --    0.04942   0.04942   0.06325   0.06643   0.07586
 Alpha virt. eigenvalues --    0.07587   0.08395   0.08396   0.11101   0.15397

  Beta  occ. eigenvalues --  -67.01914 -67.01914  -5.56836  -5.56836  -3.88072
  Beta  occ. eigenvalues --   -3.88072  -3.87824  -3.87824  -3.87824  -3.87824
  Beta  occ. eigenvalues --   -0.61193  -0.60995  -0.42194  -0.42193  -0.42163
  Beta  occ. eigenvalues --   -0.42162  -0.21090
  Beta virt. eigenvalues --   -0.11775   0.01957   0.02971   0.02971   0.03203
  Beta virt. eigenvalues --    0.04942   0.04942   0.06325   0.06643   0.07586
  Beta virt. eigenvalues --    0.07587   0.08395   0.08396   0.11101   0.15397

 Mulliken charges and spin densities:
               1          2
     1  Si   0.263480  -0.000000
     2  Si   0.263480   0.000000
     3  H   -0.087825   0.000000
     4  H   -0.087828  -0.000000
     5  H   -0.087828   0.000000
     6  H   -0.087828   0.000000
     7  H   -0.087825  -0.000000
     8  H   -0.087828  -0.000000
 Sum of Mulliken charges =  -0.00000  -0.00000

 Dipole moment (field-independent basis, Debye):
    X=              0.0000    Y=             -0.0000    Z=              0.0000  Tot=              0.0000
 Quadrupole moment (field-independent basis, Debye-Ang):
   XX=            -27.8158   YY=            -32.2216   ZZ=            -32.2218
   XY=             -0.0007   XZ=              0.0000   YZ=              0.0000

 Normal termination of Gaussian 16 at Mon Apr 21 20:21:55 2025.
