 Gaussian 16, Revision A.03,
 Gaussian 16:  ES64L-G16RevA.03 25-Dec-2016

 --------------------------------------------
 #p opt UM062X/6-311+G** nosymm int=superfine
 --------------------------------------------

 -------------------
 Title Card Required
 -------------------
 Symbolic Z-matrix:
 Charge =  1 Multiplicity = 2

 SCF Done:  E(UM062X) =  -80.1624310099     A.U. after   20 cycles
 SCF Done:  E(UM062X) =  -80.1632299319     A.U. after   10 cycles
 SCF Done:  E(UM062X) =  -80.1632324099     A.U. after    8 cycles
 Optimization completed.
    -- Stationary point found.

                          Input orientation:
 ---------------------------------------------------------------------
 Center     Atomic      Atomic             Coordinates (Angstroms)
 Number     Number       Type             X           Y           Z
 ---------------------------------------------------------------------
      1          5           0       -1.552734    0.000000    0.000000
      2          7           0        1.552734    0.000000    0.000000
      3          1           0       -2.756733   -0.000324   -0.000000
      4          1           0        2.588544   -0.000102    0.000000
 ---------------------------------------------------------------------

 Alpha  occ. eigenvalues --  -14.98170  -7.52632  -1.11000  -0.85371  -0.65220
 Alpha  occ. eigenvalues --   -0.57563  -0.57563
 Alpha virt. eigenvalues --   -0.41433  -0.33415  -0.33415  -0.14712  -0.10992
 Alpha virt. eigenvalues --   -0.09753  -0.09753  -0.06702  -0.01546   0.00259
 Alpha virt. eigenvalues --    0.00259   0.05105   0.08106   0.13740   0.13740

  Beta  occ. eigenvalues --  -14.95754  -7.53884  -0.98266  -0.88928  -0.67725
  Beta  occ. eigenvalues --   -0.59089
  Beta virt. eigenvalues --   -0.35298  -0.35298  -0.22129  -0.22129  -0.14306
  Beta virt. eigenvalues --   -0.10756  -0.09398  -0.09398  -0.07180  -0.01656
  Beta virt. eigenvalues --    0.02016   0.02016   0.05280   0.09137   0.16344

 Mulliken charges and spin densities:
               1          2
     1  B    0.728766  -0.829757
     2  N   -0.242331   2.044974
     3  H    0.220107  -0.142352
     4  H    0.293459  -0.072865
 Sum of Mulliken charges =   1.00000   1.00000

 Dipole moment (field-independent basis, Debye):
    X=             -5.5416    Y=             -0.0004    Z=             -0.0000  Tot=              5.5416
 Quadrupole moment (field-independent basis, Debye-Ang):
   XX=             11.7402   YY=            -10.2763   ZZ=            -10.2763
   XY=              0.0000   XZ=              0.0000   YZ=             -0.0000

 Normal termination of Gaussian 16 at Mon Apr 21 17:58:26 2025.
