 Gaussian 16, Revision A.03,
 Gaussian 16:  ES64L-G16RevA.03 25-Dec-2016

 ---------------------------------------
 #p UM062X/6-311+G** force int=superfine
 ---------------------------------------

 -------------------
 Title Card Required
 -------------------
 Symbolic Z-matrix:
 Charge =  0 Multiplicity = 1

                         Standard orientation:
 ---------------------------------------------------------------------
 Center     Atomic      Atomic             Coordinates (Angstroms)
 Number     Number       Type             X           Y           Z
 ---------------------------------------------------------------------
      1          6           0       -0.618504   -0.000001   -0.000005
      2          6           0        0.618504    0.000001    0.000004
      3          1           0        1.082494    0.853410    0.517378
      4          1           0       -1.082505   -0.021367    0.997758
      5          1           0        1.082506    0.021364   -0.997758
      6          1           0        1.082503   -0.874772    0.480374
      7          1           0       -1.082494   -0.853411   -0.517376
      8          1           0       -1.082504    0.874774   -0.480372
 ---------------------------------------------------------------------

 SCF Done:  E(UM062X) =  -79.7258126939     A.U. after    8 cycles

 The electronic state is 1-A.
 Alpha  occ. eigenvalues --  -10.50337 -10.50139  -0.91929  -0.68318  -0.53333
 Alpha  occ. eigenvalues --   -0.53332  -0.49342  -0.36510  -0.36510
 Alpha virt. eigenvalues --    0.02100   0.04202   0.05004   0.05004   0.08684
 Alpha virt. eigenvalues --    0.08932   0.08932   0.14213   0.19564   0.19564
 Alpha virt. eigenvalues --    0.19611   0.19611   0.24055   0.27943   0.37348

  Beta  occ. eigenvalues --  -10.50337 -10.50139  -0.91929  -0.68318  -0.53333
  Beta  occ. eigenvalues --   -0.53332  -0.49342  -0.36510  -0.36510
  Beta virt. eigenvalues --    0.02100   0.04202   0.05004   0.05004   0.08684
  Beta virt. eigenvalues --    0.08932   0.08932   0.14213   0.19564   0.19564
  Beta virt. eigenvalues --    0.19611   0.19611   0.24055   0.27943   0.37348

 Mulliken charges and spin densities:
               1          2
     1  C   -0.438094   0.000000
     2  C   -0.438094  -0.000000
     3  H    0.146031  -0.000000
     4  H    0.146030  -0.000000
     5  H    0.146030  -0.000000
     6  H    0.146032   0.000000
     7  H    0.146031  -0.000000
     8  H    0.146032  -0.000000
 Sum of Mulliken charges =  -0.00000   0.00000

 Dipole moment (field-independent basis, Debye):
    X=              0.0000    Y=             -0.0000    Z=              0.0000  Tot=              0.0000
 Quadrupole moment (field-independent basis, Debye-Ang):
   XX=            -15.6379   YY=            -14.9537   ZZ=            -14.9538
   XY=             -0.0000   XZ=              0.0000   YZ=              0.0000

 Normal termination of Gaussian 16 at Tue Nov 19 12:39:13 2024.
