 Gaussian 16, Revision A.03,
 Gaussian 16:  ES64L-G16RevA.03 25-Dec-2016

 ----------------------------------------------------------------------
 #p opt UM062X/6-311+G** nosymm int=superfine SCF=(MaxCycle=200,NoVarAc
 c,noincfock) guess=read
 ----------------------------------------------------------------------

 -------------------
 Title Card Required
 -------------------
 Symbolic Z-matrix:
 Charge =  1 Multiplicity = 2

 SCF Done:  E(UM062X) =  -80.1676616795     A.U. after   16 cycles
 SCF Done:  E(UM062X) =  -80.1684823177     A.U. after   12 cycles
 SCF Done:  E(UM062X) =  -80.1684854537     A.U. after   10 cycles
 SCF Done:  E(UM062X) =  -80.1684865301     A.U. after   12 cycles
 SCF Done:  E(UM062X) =  -80.1719026214     A.U. after   16 cycles
 SCF Done:  E(UM062X) =  -80.1746575544     A.U. after   16 cycles
 SCF Done:  E(UM062X) =  -80.1760786008     A.U. after   16 cycles
 SCF Done:  E(UM062X) =  -80.1791585775     A.U. after   16 cycles
 SCF Done:  E(UM062X) =  -80.1800205234     A.U. after   15 cycles
 SCF Done:  E(UM062X) =  -80.1849569917     A.U. after   17 cycles
 SCF Done:  E(UM062X) =  -80.1859384186     A.U. after   16 cycles
 SCF Done:  E(UM062X) =  -80.1859889999     A.U. after   13 cycles
 SCF Done:  E(UM062X) =  -80.1861724745     A.U. after   14 cycles
 SCF Done:  E(UM062X) =  -80.1862112360     A.U. after   13 cycles
 SCF Done:  E(UM062X) =  -80.1862131773     A.U. after   11 cycles
 SCF Done:  E(UM062X) =  -80.1862132645     A.U. after   10 cycles
 Optimization completed.
    -- Stationary point found.

                          Input orientation:
 ---------------------------------------------------------------------
 Center     Atomic      Atomic             Coordinates (Angstroms)
 Number     Number       Type             X           Y           Z
 ---------------------------------------------------------------------
      1          5           0       -1.277734    0.000000    0.000000
      2          7           0        1.277734    0.000000    0.000000
      3          1           0       -1.610372   -0.768721   -0.853665
      4          1           0        2.176016    0.344211    0.384606
 ---------------------------------------------------------------------

 Alpha  occ. eigenvalues --  -15.05735  -7.49687  -1.17564  -0.83313  -0.72303
 Alpha  occ. eigenvalues --   -0.64237  -0.64065
 Alpha virt. eigenvalues --   -0.39619  -0.31272  -0.29120  -0.14186  -0.10691
 Alpha virt. eigenvalues --   -0.09426  -0.08989  -0.07223  -0.04700  -0.01433
 Alpha virt. eigenvalues --   -0.01155   0.03156   0.06093   0.09240   0.15178

  Beta  occ. eigenvalues --  -15.03208  -7.50906  -1.04622  -0.86612  -0.68483
  Beta  occ. eigenvalues --   -0.62994
  Beta virt. eigenvalues --   -0.33907  -0.32176  -0.27064  -0.26585  -0.13991
  Beta virt. eigenvalues --   -0.11158  -0.09536  -0.09034  -0.06146  -0.04246
  Beta virt. eigenvalues --   -0.00304  -0.00132   0.02110   0.05875   0.15294

 Mulliken charges and spin densities:
               1          2
     1  B    0.645812  -0.852023
     2  N   -0.159522   2.028170
     3  H    0.191467  -0.118408
     4  H    0.322243  -0.057739
 Sum of Mulliken charges =   1.00000   1.00000

 Dipole moment (field-independent basis, Debye):
    X=             -2.4410    Y=              0.0978    Z=              0.1125  Tot=              2.4456
 Quadrupole moment (field-independent basis, Debye-Ang):
   XX=              4.1584   YY=            -10.0786   ZZ=            -10.0512
   XY=              1.9668   XZ=              2.1928   YZ=              0.1199

 Normal termination of Gaussian 16 at Mon Apr 21 22:37:46 2025.
