 Gaussian 16, Revision A.03,
 Gaussian 16:  ES64L-G16RevA.03 25-Dec-2016

 ---------------------------------------
 #p UM062X/6-311+G** force int=superfine
 ---------------------------------------

 -------------------
 Title Card Required
 -------------------
 Symbolic Z-matrix:
 Charge =  1 Multiplicity = 2

                         Standard orientation:
 ---------------------------------------------------------------------
 Center     Atomic      Atomic             Coordinates (Angstroms)
 Number     Number       Type             X           Y           Z
 ---------------------------------------------------------------------
      1          6           0        0.000000    0.756374    0.000000
      2          6           0       -0.000000   -0.756374    0.000000
      3          1           0       -0.943610    1.293228    0.000000
      4          1           0        0.943584    1.293270    0.000000
      5          1           0        0.943610   -1.293228    0.000000
      6          1           0       -0.943584   -1.293270    0.000000
 ---------------------------------------------------------------------

 SCF Done:  E(UM062X) =  -78.1773576604     A.U. after    9 cycles

 The electronic state is 2-AU.
 Alpha  occ. eigenvalues --  -10.90276 -10.90224  -1.15602  -0.98202  -0.83682
 Alpha  occ. eigenvalues --   -0.77481  -0.73980  -0.64371
 Alpha virt. eigenvalues --   -0.31092  -0.14616  -0.12973  -0.12019  -0.09406
 Alpha virt. eigenvalues --   -0.07659  -0.07020  -0.04722  -0.04542  -0.02212
 Alpha virt. eigenvalues --   -0.00976  -0.00137   0.04429   0.10410   0.19740

  Beta  occ. eigenvalues --  -10.90050 -10.90010  -1.11835  -0.96228  -0.82699
  Beta  occ. eigenvalues --   -0.76477  -0.73644
  Beta virt. eigenvalues --   -0.40637  -0.23659  -0.16354  -0.12796  -0.12251
  Beta virt. eigenvalues --   -0.09771  -0.08474  -0.07076  -0.04728  -0.03861
  Beta virt. eigenvalues --   -0.01671  -0.01371   0.01251   0.05232   0.10880

 Mulliken charges and spin densities:
               1          2
     1  C   -0.055750   0.538354
     2  C   -0.055750   0.538354
     3  H    0.277873  -0.019178
     4  H    0.277877  -0.019177
     5  H    0.277873  -0.019178
     6  H    0.277877  -0.019177
 Sum of Mulliken charges =   1.00000   1.00000

 Dipole moment (field-independent basis, Debye):
    X=             -0.0000    Y=              0.0000    Z=              0.0000  Tot=              0.0000
 Quadrupole moment (field-independent basis, Debye-Ang):
   XX=             -8.4267   YY=             -5.0865   ZZ=            -11.7015
   XY=              0.0001   XZ=              0.0000   YZ=              0.0000

 Normal termination of Gaussian 16 at Tue Nov 19 11:54:30 2024.
