 Gaussian 16, Revision A.03,
 Gaussian 16:  ES64L-G16RevA.03 25-Dec-2016

 --------------------------------------------
 #p opt UM062X/6-311+G** nosymm int=superfine
 --------------------------------------------

 -------------------
 Title Card Required
 -------------------
 Symbolic Z-matrix:
 Charge =  1 Multiplicity = 2

 SCF Done:  E(UM062X) =  -79.3617978264     A.U. after   10 cycles
 SCF Done:  E(UM062X) =  -79.3629742689     A.U. after    8 cycles
 SCF Done:  E(UM062X) =  -79.3629839441     A.U. after    7 cycles
 Optimization completed.
    -- Stationary point found.

                          Input orientation:
 ---------------------------------------------------------------------
 Center     Atomic      Atomic             Coordinates (Angstroms)
 Number     Number       Type             X           Y           Z
 ---------------------------------------------------------------------
      1          6           0       -1.155604    0.000000    0.000000
      2          6           0        1.155604    0.000000    0.000000
      3          1           0        1.253033   -0.934868    0.541027
      4          1           0       -1.252356   -0.935983   -0.539223
      5          1           0        1.252737    0.936040    0.539054
      6          1           0        1.252381   -0.001118   -1.080194
      7          1           0       -1.253053    0.934922   -0.540929
      8          1           0       -1.252742    0.000948    1.080161
 ---------------------------------------------------------------------

 Alpha  occ. eigenvalues --  -10.85877 -10.85870  -1.07828  -1.02211  -0.77210
 Alpha  occ. eigenvalues --   -0.77209  -0.74166  -0.74165  -0.59249
 Alpha virt. eigenvalues --   -0.29175  -0.15798  -0.10824  -0.10823  -0.09952
 Alpha virt. eigenvalues --   -0.06701  -0.06271  -0.06271  -0.04625  -0.04623
 Alpha virt. eigenvalues --   -0.02516   0.01672   0.01674   0.05021   0.07317

  Beta  occ. eigenvalues --  -10.85671 -10.85670  -1.04516  -0.99565  -0.76378
  Beta  occ. eigenvalues --   -0.76378  -0.73496  -0.73495
  Beta virt. eigenvalues --   -0.36562  -0.20915  -0.15808  -0.11078  -0.11078
  Beta virt. eigenvalues --   -0.09134  -0.06777  -0.06589  -0.06588  -0.04314
  Beta virt. eigenvalues --   -0.04312  -0.01738   0.02188   0.02190   0.05442

 Mulliken charges and spin densities:
               1          2
     1  C   -0.300769   0.566261
     2  C   -0.300770   0.566261
     3  H    0.266937  -0.022094
     4  H    0.266909  -0.022077
     5  H    0.266924  -0.022085
     6  H    0.266908  -0.022083
     7  H    0.266938  -0.022094
     8  H    0.266922  -0.022090
 Sum of Mulliken charges =   1.00000   1.00000

 Dipole moment (field-independent basis, Debye):
    X=             -0.0000    Y=             -0.0000    Z=             -0.0000  Tot=              0.0000
 Quadrupole moment (field-independent basis, Debye-Ang):
   XX=             -4.9357   YY=            -10.8711   ZZ=            -10.8713
   XY=             -0.0007   XZ=              0.0004   YZ=             -0.0000

 Normal termination of Gaussian 16 at Wed Nov 13 13:23:13 2024.
