 Gaussian 16, Revision A.03,
 Gaussian 16:  ES64L-G16RevA.03 25-Dec-2016

 --------------------------------------------
 #p opt UM062X/6-311+G** nosymm int=superfine
 --------------------------------------------

 -------------------
 Title Card Required
 -------------------
 Symbolic Z-matrix:
 Charge =  0 Multiplicity = 1

 SCF Done:  E(UM062X) =  -77.2411898767     A.U. after    9 cycles
 SCF Done:  E(UM062X) =  -77.2655450761     A.U. after    9 cycles
 SCF Done:  E(UM062X) =  -77.2681014502     A.U. after    9 cycles
 SCF Done:  E(UM062X) =  -77.2681030278     A.U. after    7 cycles
 Optimization completed.
    -- Stationary point found.

                          Input orientation:
 ---------------------------------------------------------------------
 Center     Atomic      Atomic             Coordinates (Angstroms)
 Number     Number       Type             X           Y           Z
 ---------------------------------------------------------------------
      1          6           0       -0.688293    0.000000    0.000000
      2          6           0        0.688293    0.000000    0.000000
      3          1           0       -1.756542   -0.000000    0.000000
      4          1           0        1.756540   -0.000000    0.000000
 ---------------------------------------------------------------------

 Alpha  occ. eigenvalues --  -10.59675 -10.59583  -0.81837  -0.66872  -0.56091
 Alpha  occ. eigenvalues --   -0.33264  -0.33264
 Alpha virt. eigenvalues --    0.01322   0.01322   0.02347   0.02477   0.07952
 Alpha virt. eigenvalues --    0.07952   0.09327   0.12582   0.12582   0.13497
 Alpha virt. eigenvalues --    0.18689   0.23778   0.34907   0.45563   0.58224

  Beta  occ. eigenvalues --  -10.59675 -10.59583  -0.81837  -0.66872  -0.56091
  Beta  occ. eigenvalues --   -0.33264  -0.33264
  Beta virt. eigenvalues --    0.01322   0.01322   0.02347   0.02477   0.07952
  Beta virt. eigenvalues --    0.07952   0.09327   0.12582   0.12582   0.13497
  Beta virt. eigenvalues --    0.18689   0.23778   0.34907   0.45563   0.58224

 Mulliken charges and spin densities:
               1          2
     1  C   -0.206163   0.000000
     2  C   -0.206163  -0.000000
     3  H    0.206163   0.000000
     4  H    0.206163  -0.000000
 Sum of Mulliken charges =  -0.00000  -0.00000

 Dipole moment (field-independent basis, Debye):
    X=             -0.0000    Y=             -0.0000    Z=              0.0000  Tot=              0.0000
 Quadrupole moment (field-independent basis, Debye-Ang):
   XX=             -6.2476   YY=            -14.6114   ZZ=            -14.6114
   XY=              0.0000   XZ=              0.0000   YZ=             -0.0000

 Normal termination of Gaussian 16 at Tue Dec  3 20:06:21 2024.
