 Gaussian 16, Revision A.03,
 Gaussian 16:  ES64L-G16RevA.03 25-Dec-2016

 --------------------------------------------
 #p opt UM062X/6-311+G** nosymm int=superfine
 --------------------------------------------

 -------------------
 Title Card Required
 -------------------
 Symbolic Z-matrix:
 Charge =  1 Multiplicity = 2

 SCF Done:  E(UM062X) =  -580.887626312     A.U. after   11 cycles
 SCF Done:  E(UM062X) =  -580.888083649     A.U. after    9 cycles
 SCF Done:  E(UM062X) =  -580.888245193     A.U. after   14 cycles
 SCF Done:  E(UM062X) =  -580.888328614     A.U. after   42 cycles
 SCF Done:  E(UM062X) =  -580.906504139     A.U. after   19 cycles
 SCF Done:  E(UM062X) =  -580.915352970     A.U. after   16 cycles
 SCF Done:  E(UM062X) =  -580.917106287     A.U. after   14 cycles
 SCF Done:  E(UM062X) =  -580.915875201     A.U. after   16 cycles
 SCF Done:  E(UM062X) =  -580.917097612     A.U. after   15 cycles
 SCF Done:  E(UM062X) =  -580.918023251     A.U. after   13 cycles
 SCF Done:  E(UM062X) =  -580.918557826     A.U. after   15 cycles
 SCF Done:  E(UM062X) =  -580.918658138     A.U. after   14 cycles
 SCF Done:  E(UM062X) =  -580.918663950     A.U. after   13 cycles
 SCF Done:  E(UM062X) =  -580.918664651     A.U. after   11 cycles
 Optimization completed.
    -- Stationary point found.

                          Input orientation:
 ---------------------------------------------------------------------
 Center     Atomic      Atomic             Coordinates (Angstroms)
 Number     Number       Type             X           Y           Z
 ---------------------------------------------------------------------
      1         14           0       -1.616295    0.000000    0.000000
      2         14           0        1.616295    0.000000    0.000000
      3          1           0       -1.869265   -1.255961    0.735370
      4          1           0        2.491600    1.195317   -0.044387
      5          1           0       -1.869281    1.254965    0.737066
      6          1           0        2.491620   -1.195312   -0.044170
 ---------------------------------------------------------------------

 Alpha  occ. eigenvalues --  -67.26284 -67.25280  -5.80640  -5.79797  -4.12082
 Alpha  occ. eigenvalues --   -4.11772  -4.11294  -4.11220  -4.10521  -4.10494
 Alpha  occ. eigenvalues --   -0.81109  -0.78451  -0.63103  -0.60933  -0.52613
 Alpha  occ. eigenvalues --   -0.48188
 Alpha virt. eigenvalues --   -0.27774  -0.26206  -0.13485  -0.12442  -0.10222
 Alpha virt. eigenvalues --   -0.08780  -0.08754  -0.08111  -0.07660  -0.07246
 Alpha virt. eigenvalues --   -0.06325  -0.05890  -0.05679  -0.02153   0.12348

  Beta  occ. eigenvalues --  -67.25684 -67.25259  -5.80214  -5.79781  -4.11564
  Beta  occ. eigenvalues --   -4.11207  -4.11090  -4.10686  -4.10514  -4.10458
  Beta  occ. eigenvalues --   -0.79151  -0.76882  -0.61748  -0.60814  -0.50354
  Beta virt. eigenvalues --   -0.30368  -0.27165  -0.24612  -0.13380  -0.13261
  Beta virt. eigenvalues --   -0.10333  -0.09010  -0.08347  -0.07371  -0.07150
  Beta virt. eigenvalues --   -0.07129  -0.06074  -0.05859  -0.04138  -0.02513

 Mulliken charges and spin densities:
               1          2
     1  Si   0.534677   0.868766
     2  Si   0.489623   0.024473
     3  H    0.002000   0.050373
     4  H   -0.014153   0.003005
     5  H    0.002003   0.050369
     6  H   -0.014152   0.003014
 Sum of Mulliken charges =   1.00000   1.00000

 Dipole moment (field-independent basis, Debye):
    X=             -0.0360    Y=             -0.0001    Z=              0.0866  Tot=              0.0938
 Quadrupole moment (field-independent basis, Debye-Ang):
   XX=             -7.4178   YY=            -24.9380   ZZ=            -23.1449
   XY=              0.0000   XZ=              0.0530   YZ=              0.0006

 Normal termination of Gaussian 16 at Mon Apr 21 20:27:03 2025.
