 Gaussian 16, Revision A.03,
 Gaussian 16:  ES64L-G16RevA.03 25-Dec-2016

 --------------------------------------------
 #p opt UM062X/6-311+G** nosymm int=superfine
 --------------------------------------------

 -------------------
 Title Card Required
 -------------------
 Symbolic Z-matrix:
 Charge =  1 Multiplicity = 2

 SCF Done:  E(UM062X) =  -582.153512560     A.U. after   11 cycles
 SCF Done:  E(UM062X) =  -582.153972741     A.U. after    9 cycles
 SCF Done:  E(UM062X) =  -582.154032115     A.U. after    8 cycles
 Optimization completed.
    -- Stationary point found.

                          Input orientation:
 ---------------------------------------------------------------------
 Center     Atomic      Atomic             Coordinates (Angstroms)
 Number     Number       Type             X           Y           Z
 ---------------------------------------------------------------------
      1         14           0       -1.901292    0.000000    0.000000
      2         14           0        1.901292    0.000000    0.000000
      3          1           0        2.044597   -1.457854   -0.000000
      4          1           0       -2.044290   -0.728809    1.262631
      5          1           0        2.044792    0.728955   -1.262489
      6          1           0        2.044113    0.728899    1.262600
      7          1           0       -2.044622    1.457852   -0.000111
      8          1           0       -2.044591   -0.729051   -1.262457
 ---------------------------------------------------------------------

 Alpha  occ. eigenvalues --  -67.23296 -67.23296  -5.78121  -5.78119  -4.09799
 Alpha  occ. eigenvalues --   -4.09799  -4.08993  -4.08993  -4.08993  -4.08993
 Alpha  occ. eigenvalues --   -0.82248  -0.81180  -0.62309  -0.62308  -0.61941
 Alpha  occ. eigenvalues --   -0.61940  -0.44418
 Alpha virt. eigenvalues --   -0.28011  -0.13505  -0.12030  -0.10653  -0.10652
 Alpha virt. eigenvalues --   -0.09898  -0.09387  -0.09387  -0.07990  -0.07989
 Alpha virt. eigenvalues --   -0.07843  -0.06365  -0.06363  -0.04259   0.00826

  Beta  occ. eigenvalues --  -67.23037 -67.23037  -5.78047  -5.78044  -4.09185
  Beta  occ. eigenvalues --   -4.09185  -4.08905  -4.08905  -4.08905  -4.08905
  Beta  occ. eigenvalues --   -0.80279  -0.79670  -0.62106  -0.62105  -0.61759
  Beta  occ. eigenvalues --   -0.61759
  Beta virt. eigenvalues --   -0.30038  -0.22080  -0.14376  -0.12378  -0.12377
  Beta virt. eigenvalues --   -0.11027  -0.10189  -0.09787  -0.09787  -0.07505
  Beta virt. eigenvalues --   -0.07505  -0.06844  -0.06082  -0.06082  -0.04545

 Mulliken charges and spin densities:
               1          2
     1  Si   0.497264   0.550133
     2  Si   0.497264   0.550133
     3  H    0.000925  -0.016700
     4  H    0.000902  -0.016717
     5  H    0.000914  -0.016719
     6  H    0.000897  -0.016715
     7  H    0.000925  -0.016700
     8  H    0.000909  -0.016717
 Sum of Mulliken charges =   1.00000   1.00000

 Dipole moment (field-independent basis, Debye):
    X=              0.0000    Y=             -0.0000    Z=              0.0000  Tot=              0.0000
 Quadrupole moment (field-independent basis, Debye-Ang):
   XX=             -3.2624   YY=            -26.0784   ZZ=            -26.0786
   XY=             -0.0001   XZ=              0.0001   YZ=              0.0000

 Normal termination of Gaussian 16 at Mon Apr 21 20:15:59 2025.
