 Gaussian 16, Revision A.03,
 Gaussian 16:  ES64L-G16RevA.03 25-Dec-2016

 --------------------------------------------
 #p opt UM062X/6-311+G** nosymm int=superfine
 --------------------------------------------

 -------------------
 Title Card Required
 -------------------
 Symbolic Z-matrix:
 Charge = -1 Multiplicity = 2

 SCF Done:  E(UM062X) =  -53.2041319917     A.U. after   11 cycles
 SCF Done:  E(UM062X) =  -53.2078290280     A.U. after   11 cycles
 SCF Done:  E(UM062X) =  -53.2086435137     A.U. after   10 cycles
 SCF Done:  E(UM062X) =  -53.2086452589     A.U. after    8 cycles
 Optimization completed.
    -- Stationary point found.

                          Input orientation:
 ---------------------------------------------------------------------
 Center     Atomic      Atomic             Coordinates (Angstroms)
 Number     Number       Type             X           Y           Z
 ---------------------------------------------------------------------
      1          5           0       -1.940672    0.000000    0.000000
      2          5           0        1.940672    0.000000    0.000000
      3          1           0        2.012784   -1.196759   -0.000014
      4          1           0       -2.012568   -0.598382    1.036439
      5          1           0        2.012722    0.598400   -1.036419
      6          1           0        2.012509    0.598368    1.036450
      7          1           0       -2.012791    1.196759   -0.000001
      8          1           0       -2.012656   -0.598387   -1.036430
 ---------------------------------------------------------------------

 Alpha  occ. eigenvalues --   -6.84298  -6.84298  -0.39783  -0.39127  -0.21570
 Alpha  occ. eigenvalues --   -0.21570  -0.21244  -0.21244   0.00952
 Alpha virt. eigenvalues --    0.12160   0.16927   0.17744   0.17745   0.18430
 Alpha virt. eigenvalues --    0.18430   0.19533   0.22821   0.23772   0.32895
 Alpha virt. eigenvalues --    0.32895   0.34752   0.34752   0.37205   0.38965

  Beta  occ. eigenvalues --   -6.84260  -6.84260  -0.37989  -0.37569  -0.21391
  Beta  occ. eigenvalues --   -0.21390  -0.21075  -0.21074
  Beta virt. eigenvalues --    0.11691   0.13663   0.14053   0.15350   0.15350
  Beta virt. eigenvalues --    0.17975   0.17975   0.21647   0.22412   0.25469
  Beta virt. eigenvalues --    0.31861   0.31861   0.34055   0.34055   0.36317

 Mulliken charges and spin densities:
               1          2
     1  B   -0.337807   0.566249
     2  B   -0.337807   0.566249
     3  H   -0.054060  -0.022072
     4  H   -0.054064  -0.022088
     5  H   -0.054070  -0.022088
     6  H   -0.054062  -0.022089
     7  H   -0.054061  -0.022072
     8  H   -0.054067  -0.022088
 Sum of Mulliken charges =  -1.00000   1.00000

 Dipole moment (field-independent basis, Debye):
    X=             -0.0000    Y=             -0.0000    Z=              0.0001  Tot=              0.0001
 Quadrupole moment (field-independent basis, Debye-Ang):
   XX=            -42.3187   YY=            -24.2834   ZZ=            -24.2834
   XY=              0.0001   XZ=              0.0000   YZ=              0.0000

 Normal termination of Gaussian 16 at Mon Apr 21 16:50:35 2025.
