 Gaussian 16, Revision A.03,
 Gaussian 16:  ES64L-G16RevA.03 25-Dec-2016

 --------------------------------------------
 #p opt UM062X/6-311+G** nosymm int=superfine
 --------------------------------------------

 -------------------
 Title Card Required
 -------------------
 Symbolic Z-matrix:
 Charge =  1 Multiplicity = 2

 SCF Done:  E(UM062X) =  -92.6665659607     A.U. after   20 cycles
 SCF Done:  E(UM062X) =  -92.6668985768     A.U. after   14 cycles
 SCF Done:  E(UM062X) =  -92.6668992725     A.U. after   11 cycles
 Optimization completed.
    -- Stationary point found.

                          Input orientation:
 ---------------------------------------------------------------------
 Center     Atomic      Atomic             Coordinates (Angstroms)
 Number     Number       Type             X           Y           Z
 ---------------------------------------------------------------------
      1          6           0       -0.951540    0.000000    0.000000
      2          7           0        0.951540    0.000000    0.000000
      3          1           0       -2.069901    0.000000   -0.000000
 ---------------------------------------------------------------------

 Alpha  occ. eigenvalues --  -15.23638 -11.09100  -1.20541  -1.06948  -0.78447
 Alpha  occ. eigenvalues --   -0.71930  -0.64543
 Alpha virt. eigenvalues --   -0.43453  -0.43128  -0.36822  -0.16227  -0.11500
 Alpha virt. eigenvalues --   -0.10459  -0.09955  -0.05453  -0.01998  -0.01515
 Alpha virt. eigenvalues --    0.01229   0.07759   0.23809   0.29345   0.29397

  Beta  occ. eigenvalues --  -15.22632 -11.09062  -1.14811  -1.05296  -0.76986
  Beta  occ. eigenvalues --   -0.63697
  Beta virt. eigenvalues --   -0.44855  -0.41713  -0.34796  -0.33906  -0.16609
  Beta virt. eigenvalues --   -0.11880  -0.10399  -0.10276  -0.05845  -0.02306
  Beta virt. eigenvalues --   -0.01940   0.01270   0.06146   0.23795   0.28784

 Mulliken charges and spin densities:
               1          2
     1  C    0.251256   0.185004
     2  N    0.393237   0.836821
     3  H    0.355507  -0.021825
 Sum of Mulliken charges =   1.00000   1.00000

 Dipole moment (field-independent basis, Debye):
    X=             -4.1524    Y=              0.0000    Z=             -0.0000  Tot=              4.1524
 Quadrupole moment (field-independent basis, Debye-Ang):
   XX=              0.8050   YY=            -10.4622   ZZ=            -10.1771
   XY=             -0.0000   XZ=              0.0000   YZ=              0.9994

 Normal termination of Gaussian 16 at Mon Apr 21 18:28:28 2025.
