 Gaussian 16, Revision A.03,
 Gaussian 16:  ES64L-G16RevA.03 25-Dec-2016

 --------------------------------------------
 #p opt UM062X/6-311+G** nosymm int=superfine
 --------------------------------------------

 -------------------
 Title Card Required
 -------------------
 Symbolic Z-matrix:
 Charge =  1 Multiplicity = 2

 SCF Done:  E(UM062X) =  -1615.37693450     A.U. after   30 cycles
 SCF Done:  E(UM062X) =  -1615.45991449     A.U. after   26 cycles
 SCF Done:  E(UM062X) =  -1615.54288205     A.U. after   24 cycles
 SCF Done:  E(UM062X) =  -1615.54689195     A.U. after   21 cycles
 SCF Done:  E(UM062X) =  -1615.54810025     A.U. after   27 cycles
 SCF Done:  E(UM062X) =  -1615.54775178     A.U. after   28 cycles
 SCF Done:  E(UM062X) =  -1615.51241368     A.U. after   29 cycles
 SCF Done:  E(UM062X) =  -1615.51816063     A.U. after   26 cycles
 SCF Done:  E(UM062X) =  -1615.54811078     A.U. after   23 cycles
 SCF Done:  E(UM062X) =  -1615.54914066     A.U. after   24 cycles
 SCF Done:  E(UM062X) =  -1615.54971586     A.U. after   20 cycles
 SCF Done:  E(UM062X) =  -1615.54971880     A.U. after   21 cycles
 SCF Done:  E(UM062X) =  -1615.54972004     A.U. after   21 cycles
 SCF Done:  E(UM062X) =  -1615.54972095     A.U. after   18 cycles
 SCF Done:  E(UM062X) =  -1615.54972172     A.U. after   18 cycles
 SCF Done:  E(UM062X) =  -1615.54972237     A.U. after   19 cycles
 SCF Done:  E(UM062X) =  -1615.54972289     A.U. after   17 cycles
 SCF Done:  E(UM062X) =  -1615.54972313     A.U. after   16 cycles
 SCF Done:  E(UM062X) =  -1615.54972325     A.U. after   16 cycles
 SCF Done:  E(UM062X) =  -1615.54972333     A.U. after   16 cycles
 Optimization completed.
    -- Stationary point found.

                          Input orientation:
 ---------------------------------------------------------------------
 Center     Atomic      Atomic             Coordinates (Angstroms)
 Number     Number       Type             X           Y           Z
 ---------------------------------------------------------------------
      1          6           0       -1.854615    0.000000   -0.000000
      2          6           0        1.854615    0.000000   -0.000000
      3          6           0       -0.000143   -1.988565   -0.006265
      4          6           0        0.000014   -3.398831   -0.010717
      5          6           0       -1.119518   -4.246069    0.225733
      6          6           0       -1.349579   -1.424773    0.180877
      7          6           0        0.658584   -5.637152   -0.162813
      8          1           0        1.290187   -6.501790   -0.308312
      9          6           0       -1.871925    0.789205    1.201466
     10          6           0       -0.658193   -5.638163    0.127033
     11          1           0       -1.289687   -6.503808    0.266928
     12          6           0        1.119677   -4.244389   -0.252678
     13          6           0        1.349204   -1.423485   -0.190073
     14          6           0        2.354379    2.142345   -1.327460
     15          6           0       -2.111817    0.354459   -1.369807
     16          6           0       -2.317424    2.750223    2.604679
     17          1           0       -2.700286    3.760401    2.688865
     18          6           0       -2.331328   -3.682279    0.493391
     19          1           0       -3.217554   -4.270110    0.701236
     20          6           0       -2.528179    1.639230   -1.854306
     21          6           0        2.409799   -2.268398   -0.462370
     22          1           0        3.385093   -1.812294   -0.599295
     23          6           0        2.111839    0.345802    1.371869
     24          6           0        2.529397    1.627273    1.864199
     25          6           0        2.331342   -3.678741   -0.516988
     26          1           0        3.217632   -4.265080   -0.728724
     27          6           0       -2.350805    2.135025    1.340651
     28          6           0       -1.355802    0.179309    2.385183
     29          1           0       -0.985491   -0.833225    2.336201
     30          6           0        1.903537   -0.669851    2.357084
     31          1           0        1.640465   -1.668522    2.042706
     32          6           0       -1.809012    2.122322    3.722787
     33          1           0       -1.798086    2.632081    4.678230
     34          6           0       -2.410022   -2.271647    0.447630
     35          1           0       -3.385391   -1.816526    0.587253
     36          6           0       -2.636274    1.849116   -3.241585
     37          1           0       -2.943341    2.830075   -3.584468
     38          6           0        1.872418    0.796787   -1.196318
     39          6           0       -2.860557    2.966911    0.282988
     40          1           0       -3.224628    3.931776    0.621457
     41          6           0       -2.388571    0.855939   -4.164818
     42          1           0       -2.492281    1.056344   -5.224251
     43          6           0       -2.908369    2.770439   -1.048908
     44          1           0       -3.299371    3.603290   -1.624641
     45          6           0        2.636425    1.828866    3.252835
     46          1           0        2.944215    2.807436    3.601829
     47          6           0       -1.314462    0.821201    3.601108
     48          1           0       -0.905676    0.306603    4.462117
     49          6           0       -1.905001   -0.655372   -2.361244
     50          1           0       -1.642547   -1.656153   -2.053106
     51          6           0        2.386879    0.830465    4.169839
     52          1           0        2.489748    1.024504    5.230542
     53          6           0        2.321815    2.765287   -2.587765
     54          1           0        2.707281    3.774935   -2.666143
     55          6           0        2.037128   -0.441374    3.706131
     56          1           0        1.873360   -1.253906    4.403808
     57          6           0        1.810685    2.145567   -3.709124
     58          1           0        1.800223    2.661237   -4.661400
     59          6           0        2.866215    2.966588   -0.265022
     60          1           0        3.232887    3.932481   -0.597688
     61          6           0       -2.039420   -0.418813   -3.708889
     62          1           0       -1.876860   -1.227394   -4.411430
     63          6           0        2.912461    2.762313    1.065839
     64          1           0        3.304772    3.590958    1.646727
     65          6           0        1.353648    0.195448   -2.383285
     66          1           0        0.980840   -0.816428   -2.340133
     67          6           0        1.312591    0.845037   -3.595058
     68          1           0        0.901305    0.337012   -4.458762
 ---------------------------------------------------------------------

 Alpha  occ. eigenvalues --  -10.70675 -10.70633 -10.68564 -10.68538 -10.68410
 Alpha  occ. eigenvalues --  -10.68385 -10.68178 -10.68146 -10.68115 -10.67952
 Alpha  occ. eigenvalues --  -10.67921 -10.67698 -10.67688 -10.66398 -10.66368
 Alpha  occ. eigenvalues --  -10.66292 -10.66262 -10.65862 -10.65835 -10.65764
 Alpha  occ. eigenvalues --  -10.65740 -10.65654 -10.65628 -10.65519 -10.65496
 Alpha  occ. eigenvalues --  -10.65466 -10.65443 -10.65334 -10.65313 -10.65289
 Alpha  occ. eigenvalues --  -10.65266 -10.65188 -10.65168 -10.65160 -10.65156
 Alpha  occ. eigenvalues --  -10.65061 -10.65051 -10.64744 -10.64740 -10.64024
 Alpha  occ. eigenvalues --  -10.63613 -10.63511  -1.11422  -1.10381  -1.09744
 Alpha  occ. eigenvalues --   -1.07970  -1.07789  -1.04966  -1.04848  -1.02196
 Alpha  occ. eigenvalues --   -1.02053  -1.00961  -0.99944  -0.97741  -0.97520
 Alpha  occ. eigenvalues --   -0.96421  -0.96231  -0.94727  -0.93469  -0.93329
 Alpha  occ. eigenvalues --   -0.92746  -0.91545  -0.87105  -0.86888  -0.84766
 Alpha  occ. eigenvalues --   -0.84631  -0.82952  -0.81363  -0.80589  -0.79652
 Alpha  occ. eigenvalues --   -0.79475  -0.79363  -0.77006  -0.76117  -0.75959
 Alpha  occ. eigenvalues --   -0.75757  -0.75136  -0.73089  -0.69804  -0.69430
 Alpha  occ. eigenvalues --   -0.68498  -0.68484  -0.67681  -0.67482  -0.66686
 Alpha  occ. eigenvalues --   -0.66667  -0.65671  -0.65232  -0.65056  -0.64434
 Alpha  occ. eigenvalues --   -0.63178  -0.62721  -0.62346  -0.61856  -0.60721
 Alpha  occ. eigenvalues --   -0.60619  -0.60348  -0.60023  -0.59807  -0.59529
 Alpha  occ. eigenvalues --   -0.59287  -0.58516  -0.58253  -0.57943  -0.57599
 Alpha  occ. eigenvalues --   -0.57349  -0.56256  -0.55918  -0.55527  -0.55494
 Alpha  occ. eigenvalues --   -0.54840  -0.54700  -0.52851  -0.52676  -0.52538
 Alpha  occ. eigenvalues --   -0.52279  -0.52171  -0.51802  -0.50836  -0.50819
 Alpha  occ. eigenvalues --   -0.50640  -0.49787  -0.49668  -0.49471  -0.48741
 Alpha  occ. eigenvalues --   -0.48542  -0.48002  -0.47981  -0.46279  -0.44186
 Alpha  occ. eigenvalues --   -0.43066  -0.42911  -0.41107  -0.40289  -0.38796
 Alpha  occ. eigenvalues --   -0.37981  -0.37802  -0.36933  -0.28945
 Alpha virt. eigenvalues --   -0.22133  -0.15275  -0.15215  -0.14717  -0.10341
 Alpha virt. eigenvalues --   -0.09193  -0.08711  -0.08517  -0.08275  -0.07706
 Alpha virt. eigenvalues --   -0.07323  -0.07240  -0.06601  -0.06228  -0.06195

  Beta  occ. eigenvalues --  -10.70515 -10.70470 -10.68609 -10.68583 -10.68456
  Beta  occ. eigenvalues --  -10.68431 -10.68150 -10.68105 -10.68073 -10.67907
  Beta  occ. eigenvalues --  -10.67875 -10.67717 -10.67706 -10.66391 -10.66361
  Beta  occ. eigenvalues --  -10.66284 -10.66254 -10.65827 -10.65799 -10.65732
  Beta  occ. eigenvalues --  -10.65708 -10.65611 -10.65585 -10.65483 -10.65479
  Beta  occ. eigenvalues --  -10.65460 -10.65455 -10.65350 -10.65329 -10.65310
  Beta  occ. eigenvalues --  -10.65287 -10.65206 -10.65187 -10.65155 -10.65151
  Beta  occ. eigenvalues --  -10.65049 -10.65040 -10.64744 -10.64740 -10.64022
  Beta  occ. eigenvalues --  -10.63613 -10.63511  -1.11290  -1.10203  -1.09665
  Beta  occ. eigenvalues --   -1.07866  -1.07690  -1.04815  -1.04683  -1.02081
  Beta  occ. eigenvalues --   -1.01943  -1.00783  -0.99782  -0.97637  -0.97416
  Beta  occ. eigenvalues --   -0.96314  -0.96139  -0.94687  -0.93400  -0.93227
  Beta  occ. eigenvalues --   -0.92665  -0.91463  -0.86795  -0.86538  -0.84700
  Beta  occ. eigenvalues --   -0.84566  -0.82876  -0.81272  -0.80493  -0.79575
  Beta  occ. eigenvalues --   -0.79399  -0.79285  -0.76901  -0.75993  -0.75788
  Beta  occ. eigenvalues --   -0.75590  -0.75079  -0.72983  -0.69683  -0.69281
  Beta  occ. eigenvalues --   -0.68394  -0.68390  -0.67634  -0.67435  -0.66569
  Beta  occ. eigenvalues --   -0.66547  -0.65559  -0.65082  -0.64907  -0.64342
  Beta  occ. eigenvalues --   -0.63010  -0.62663  -0.62245  -0.61784  -0.60592
  Beta  occ. eigenvalues --   -0.60480  -0.60233  -0.59940  -0.59747  -0.59347
  Beta  occ. eigenvalues --   -0.59072  -0.58447  -0.58043  -0.57859  -0.57378
  Beta  occ. eigenvalues --   -0.57267  -0.55866  -0.55711  -0.55461  -0.55436
  Beta  occ. eigenvalues --   -0.54793  -0.54383  -0.52749  -0.52575  -0.52486
  Beta  occ. eigenvalues --   -0.52166  -0.52056  -0.51784  -0.50776  -0.50721
  Beta  occ. eigenvalues --   -0.50549  -0.49583  -0.49477  -0.49239  -0.48379
  Beta  occ. eigenvalues --   -0.48185  -0.47962  -0.47004  -0.45529  -0.43797
  Beta  occ. eigenvalues --   -0.42645  -0.42226  -0.40833  -0.40206  -0.38286
  Beta  occ. eigenvalues --   -0.37814  -0.37347  -0.36926
  Beta virt. eigenvalues --   -0.19743  -0.18577  -0.15270  -0.15256  -0.14792
  Beta virt. eigenvalues --   -0.10105  -0.08796  -0.08307  -0.08297  -0.08107
  Beta virt. eigenvalues --   -0.07390  -0.07379  -0.07221  -0.06577  -0.06283

 Mulliken charges and spin densities:
               1          2
     1  C    0.106027   0.306930
     2  C    0.106513   0.303780
     3  C    0.190862   0.015125
     4  C    0.074675  -0.010671
     5  C    0.031008   0.007463
     6  C    0.261402  -0.022876
     7  C   -0.276110   0.000997
     8  H    0.175692   0.000003
     9  C   -0.039893  -0.110936
    10  C   -0.276256   0.001023
    11  H    0.175702   0.000003
    12  C    0.031536   0.007463
    13  C    0.263333  -0.022698
    14  C    0.363760   0.097402
    15  C    0.310468  -0.057418
    16  C   -0.208236  -0.033481
    17  H    0.173138   0.001017
    18  C   -0.403735   0.004348
    19  H    0.174020   0.000020
    20  C    0.394635   0.079540
    21  C   -0.393788   0.019673
    22  H    0.168335   0.000214
    23  C    0.311212  -0.056834
    24  C    0.394951   0.078726
    25  C   -0.403342   0.004278
    26  H    0.174029   0.000019
    27  C    0.363303   0.098004
    28  C    0.136513   0.105444
    29  H    0.194138  -0.006149
    30  C   -0.285428   0.036568
    31  H    0.232195  -0.004417
    32  C   -0.424689   0.075345
    33  H    0.178971  -0.003767
    34  C   -0.393235   0.019803
    35  H    0.168454   0.000212
    36  C   -0.161596  -0.043932
    37  H    0.168494   0.000851
    38  C   -0.042295  -0.110427
    39  C   -0.425905   0.014756
    40  H    0.176664  -0.001191
    41  C   -0.189572   0.072963
    42  H    0.180726  -0.003384
    43  C   -0.321999   0.028833
    44  H    0.177760  -0.001262
    45  C   -0.161123  -0.043511
    46  H    0.168571   0.000839
    47  C    0.019060  -0.037269
    48  H    0.162631   0.001709
    49  C   -0.286543   0.037328
    50  H    0.231996  -0.004437
    51  C   -0.188182   0.072177
    52  H    0.180810  -0.003341
    53  C   -0.207822  -0.033107
    54  H    0.173240   0.001006
    55  C   -0.466578  -0.029639
    56  H    0.175332   0.000968
    57  C   -0.426312   0.074672
    58  H    0.179109  -0.003731
    59  C   -0.425114   0.014608
    60  H    0.176787  -0.001180
    61  C   -0.465028  -0.030197
    62  H    0.175237   0.000980
    63  C   -0.322173   0.028639
    64  H    0.177890  -0.001250
    65  C    0.139813   0.104780
    66  H    0.194173  -0.006124
    67  C    0.018975  -0.036992
    68  H    0.162813   0.001710
 Sum of Mulliken charges =   1.00000   1.00000

 Dipole moment (field-independent basis, Debye):
    X=              0.0348    Y=              2.8969    Z=              0.0115  Tot=              2.8971
 Quadrupole moment (field-independent basis, Debye-Ang):
   XX=           -208.5294   YY=           -177.4982   ZZ=           -178.2336
   XY=              0.0662   XZ=              7.0263   YZ=             -0.0147

 Normal termination of Gaussian 16 at Sat Nov 16 09:28:50 2024.
