 Gaussian 16, Revision A.03,
 Gaussian 16:  ES64L-G16RevA.03 25-Dec-2016

 --------------------------------------------
 #p opt UM062X/6-311+G** nosymm int=superfine
 --------------------------------------------

 -------------------
 Title Card Required
 -------------------
 Symbolic Z-matrix:
 Charge =  1 Multiplicity = 2

 SCF Done:  E(UM062X) =  -79.3488616304     A.U. after   10 cycles
 SCF Done:  E(UM062X) =  -79.3488941006     A.U. after    8 cycles
 Optimization completed.
    -- Stationary point found.

                          Input orientation:
 ---------------------------------------------------------------------
 Center     Atomic      Atomic             Coordinates (Angstroms)
 Number     Number       Type             X           Y           Z
 ---------------------------------------------------------------------
      1          6           0       -1.369605    0.000000    0.000000
      2          6           0        1.369605    0.000000    0.000000
      3          1           0        1.435037   -0.936472    0.541990
      4          1           0       -1.433943   -0.937588   -0.540188
      5          1           0        1.434586    0.937673    0.539965
      6          1           0        1.433980   -0.001146   -1.082063
      7          1           0       -1.435070    0.936552   -0.541851
      8          1           0       -1.434588    0.000921    1.082028
 ---------------------------------------------------------------------

 Alpha  occ. eigenvalues --  -10.85425 -10.85421  -1.05239  -1.02630  -0.75555
 Alpha  occ. eigenvalues --   -0.75554  -0.74216  -0.74216  -0.54986
 Alpha virt. eigenvalues --   -0.33626  -0.14718  -0.10458  -0.10458  -0.10062
 Alpha virt. eigenvalues --   -0.06205  -0.06205  -0.05882  -0.03128  -0.03125
 Alpha virt. eigenvalues --   -0.03062   0.01491   0.01494   0.05423   0.07470

  Beta  occ. eigenvalues --  -10.85229 -10.85229  -1.02133  -1.00239  -0.74912
  Beta  occ. eigenvalues --   -0.74912  -0.73694  -0.73694
  Beta virt. eigenvalues --   -0.33300  -0.24303  -0.15499  -0.11117  -0.11117
  Beta virt. eigenvalues --   -0.09732  -0.06523  -0.06523  -0.05878  -0.03166
  Beta virt. eigenvalues --   -0.03163  -0.02280   0.01854   0.01855   0.06054

 Mulliken charges and spin densities:
               1          2
     1  C   -0.278220   0.573289
     2  C   -0.278219   0.573290
     3  H    0.259432  -0.024430
     4  H    0.259386  -0.024420
     5  H    0.259412  -0.024426
     6  H    0.259375  -0.024435
     7  H    0.259434  -0.024430
     8  H    0.259400  -0.024439
 Sum of Mulliken charges =   1.00000   1.00000

 Dipole moment (field-independent basis, Debye):
    X=             -0.0000    Y=             -0.0000    Z=             -0.0001  Tot=              0.0001
 Quadrupole moment (field-independent basis, Debye-Ang):
   XX=             -2.2204   YY=            -10.9805   ZZ=            -10.9807
   XY=             -0.0012   XZ=              0.0007   YZ=             -0.0001

 Normal termination of Gaussian 16 at Wed Nov 13 12:44:30 2024.
