 Gaussian 16, Revision A.03,
 Gaussian 16:  ES64L-G16RevA.03 25-Dec-2016

 --------------------------------------------
 #p opt UM062X/6-311+G** nosymm int=superfine
 --------------------------------------------

 -------------------
 Title Card Required
 -------------------
 Symbolic Z-matrix:
 Charge =  0 Multiplicity = 1

 SCF Done:  E(UM062X) =  -81.8649046203     A.U. after   11 cycles
 SCF Done:  E(UM062X) =  -81.8685781320     A.U. after    9 cycles
 SCF Done:  E(UM062X) =  -81.8701041020     A.U. after   10 cycles
 SCF Done:  E(UM062X) =  -81.8623078343     A.U. after   12 cycles
 SCF Done:  E(UM062X) =  -81.8702017807     A.U. after   10 cycles
 SCF Done:  E(UM062X) =  -81.8720798876     A.U. after   12 cycles
 SCF Done:  E(UM062X) =  -81.8738079080     A.U. after   12 cycles
 SCF Done:  E(UM062X) =  -81.8782395932     A.U. after   12 cycles
 SCF Done:  E(UM062X) =  -81.8792411406     A.U. after   12 cycles
 SCF Done:  E(UM062X) =  -81.8805922256     A.U. after   11 cycles
 SCF Done:  E(UM062X) =  -81.8806824984     A.U. after   10 cycles
 SCF Done:  E(UM062X) =  -81.8806852223     A.U. after    9 cycles
 SCF Done:  E(UM062X) =  -81.8806854521     A.U. after    8 cycles
 Optimization completed.
    -- Stationary point found.

                          Input orientation:
 ---------------------------------------------------------------------
 Center     Atomic      Atomic             Coordinates (Angstroms)
 Number     Number       Type             X           Y           Z
 ---------------------------------------------------------------------
      1          5           0       -1.095399    0.000000    0.000000
      2          7           0        1.095399    0.000000    0.000000
      3          1           0       -1.551358   -1.083465   -0.038220
      4          1           0        1.298827    0.817388    0.573936
      5          1           0       -1.551358    1.083459   -0.038378
      6          1           0        1.298827   -0.817309    0.574048
 ---------------------------------------------------------------------

 Alpha  occ. eigenvalues --  -14.72698  -7.13792  -0.89309  -0.59571  -0.51014
 Alpha  occ. eigenvalues --   -0.46332  -0.36745  -0.30392
 Alpha virt. eigenvalues --   -0.05168   0.00460   0.01540   0.03387   0.05446
 Alpha virt. eigenvalues --    0.07382   0.11635   0.13804   0.14679   0.16658
 Alpha virt. eigenvalues --    0.20323   0.20711   0.21662   0.28723   0.34266

  Beta  occ. eigenvalues --  -14.72698  -7.13792  -0.89309  -0.59571  -0.51014
  Beta  occ. eigenvalues --   -0.46332  -0.36745  -0.30392
  Beta virt. eigenvalues --   -0.05168   0.00460   0.01540   0.03387   0.05446
  Beta virt. eigenvalues --    0.07382   0.11635   0.13804   0.14679   0.16658
  Beta virt. eigenvalues --    0.20323   0.20711   0.21662   0.28723   0.34266

 Mulliken charges and spin densities:
               1          2
     1  B    0.198755  -0.000000
     2  N   -0.745766   0.000000
     3  H    0.036145  -0.000000
     4  H    0.237360  -0.000000
     5  H    0.036145  -0.000000
     6  H    0.237360  -0.000000
 Sum of Mulliken charges =  -0.00000  -0.00000

 Dipole moment (field-independent basis, Debye):
    X=             -2.1853    Y=              0.0001    Z=              1.5589  Tot=              2.6844
 Quadrupole moment (field-independent basis, Debye-Ang):
   XX=            -14.7961   YY=            -13.2966   ZZ=            -14.5335
   XY=              0.0002   XZ=              2.4624   YZ=             -0.0001

 Normal termination of Gaussian 16 at Mon Apr 21 17:29:48 2025.
