 Gaussian 16, Revision A.03,
 Gaussian 16:  ES64L-G16RevA.03 25-Dec-2016

 ---------------------------------------
 #p UM062X/6-311+G** force int=superfine
 ---------------------------------------

 -------------------
 Title Card Required
 -------------------
 Symbolic Z-matrix:
 Charge =  1 Multiplicity = 2

                         Standard orientation:
 ---------------------------------------------------------------------
 Center     Atomic      Atomic             Coordinates (Angstroms)
 Number     Number       Type             X           Y           Z
 ---------------------------------------------------------------------
      1          6           0        1.298272   -0.000040   -0.000019
      2          6           0       -1.298272    0.000045    0.000008
      3          1           0       -1.372239   -0.995828   -0.421855
      4          1           0        1.371364   -0.863292    0.651637
      5          1           0       -1.371872    0.863392   -0.651467
      6          1           0       -1.371414    0.132636    1.073446
      7          1           0        1.372265    0.995887    0.421712
      8          1           0        1.371896   -0.132824   -1.073402
 ---------------------------------------------------------------------

 SCF Done:  E(UM062X) =  -79.3537650925     A.U. after    9 cycles

 The electronic state is 2-A.
 Alpha  occ. eigenvalues --  -10.85585 -10.85581  -1.05938  -1.02566  -0.76025
 Alpha  occ. eigenvalues --   -0.76024  -0.74256  -0.74255  -0.56253
 Alpha virt. eigenvalues --   -0.32478  -0.15055  -0.10549  -0.10549  -0.10019
 Alpha virt. eigenvalues --   -0.06209  -0.06209  -0.06149  -0.03617  -0.03615
 Alpha virt. eigenvalues --   -0.02919   0.01567   0.01569   0.05429   0.07407

  Beta  occ. eigenvalues --  -10.85388 -10.85388  -1.02731  -1.00138  -0.75323
  Beta  occ. eigenvalues --   -0.75322  -0.73705  -0.73705
  Beta virt. eigenvalues --   -0.34025  -0.23441  -0.15576  -0.11105  -0.11105
  Beta virt. eigenvalues --   -0.09590  -0.06553  -0.06553  -0.06121  -0.03534
  Beta virt. eigenvalues --   -0.03532  -0.02162   0.01969   0.01970   0.05919

 Mulliken charges and spin densities:
               1          2
     1  C   -0.283005   0.574257
     2  C   -0.283005   0.574257
     3  H    0.261020  -0.024752
     4  H    0.260979  -0.024751
     5  H    0.261000  -0.024758
     6  H    0.260985  -0.024747
     7  H    0.261022  -0.024753
     8  H    0.261004  -0.024753
 Sum of Mulliken charges =   1.00000   1.00000

 Dipole moment (field-independent basis, Debye):
    X=             -0.0000    Y=             -0.0000    Z=              0.0000  Tot=              0.0000
 Quadrupole moment (field-independent basis, Debye-Ang):
   XX=             -3.1904   YY=            -10.9505   ZZ=            -10.9507
   XY=              0.0007   XZ=              0.0002   YZ=              0.0000

 Normal termination of Gaussian 16 at Wed Nov 13 13:01:30 2024.
