 Gaussian 16, Revision A.03,
 Gaussian 16:  ES64L-G16RevA.03 25-Dec-2016

 --------------------------------------------
 #p opt UM062X/6-311+G** nosymm int=superfine
 --------------------------------------------

 -------------------
 Title Card Required
 -------------------
 Symbolic Z-matrix:
 Charge =  0 Multiplicity = 1

 SCF Done:  E(UM062X) =  -380.951354235     A.U. after   22 cycles
 SCF Done:  E(UM062X) =  -380.953343445     A.U. after   14 cycles
 SCF Done:  E(UM062X) =  -380.954516619     A.U. after   15 cycles
 SCF Done:  E(UM062X) =  -380.954587505     A.U. after   14 cycles
 SCF Done:  E(UM062X) =  -380.954490373     A.U. after   17 cycles
 SCF Done:  E(UM062X) =  -380.954638791     A.U. after   16 cycles
 SCF Done:  E(UM062X) =  -380.954641520     A.U. after   14 cycles
 SCF Done:  E(UM062X) =  -380.954646073     A.U. after   12 cycles
 SCF Done:  E(UM062X) =  -380.954653992     A.U. after   15 cycles
 SCF Done:  E(UM062X) =  -380.954656105     A.U. after   12 cycles
 Optimization completed.
    -- Stationary point found.

                          Input orientation:
 ---------------------------------------------------------------------
 Center     Atomic      Atomic             Coordinates (Angstroms)
 Number     Number       Type             X           Y           Z
 ---------------------------------------------------------------------
      1          6           0       -1.580452    0.000000    0.000000
      2         15           0        1.580452    0.000000    0.000000
      3          1           0       -2.252147   -0.871943    0.000171
      4          1           0        1.367198   -1.404623   -0.000107
      5          1           0       -2.217420    0.897304   -0.000622
 ---------------------------------------------------------------------

 Alpha  occ. eigenvalues --  -78.04105 -10.64304  -6.86259  -4.98194  -4.97496
 Alpha  occ. eigenvalues --   -4.97110  -0.78101  -0.64861  -0.51150  -0.37644
 Alpha  occ. eigenvalues --   -0.34345  -0.23723
 Alpha virt. eigenvalues --   -0.10762  -0.09096   0.01287   0.04218   0.04776
 Alpha virt. eigenvalues --    0.06277   0.06944   0.07320   0.08959   0.11542
 Alpha virt. eigenvalues --    0.13685   0.17216   0.18432   0.31061   0.34246

  Beta  occ. eigenvalues --  -78.04105 -10.64304  -6.86259  -4.98194  -4.97496
  Beta  occ. eigenvalues --   -4.97110  -0.78101  -0.64861  -0.51150  -0.37644
  Beta  occ. eigenvalues --   -0.34345  -0.23723
  Beta virt. eigenvalues --   -0.10762  -0.09096   0.01287   0.04218   0.04776
  Beta virt. eigenvalues --    0.06277   0.06944   0.07320   0.08959   0.11542
  Beta virt. eigenvalues --    0.13685   0.17216   0.18432   0.31061   0.34246

 Mulliken charges and spin densities:
               1          2
     1  C   -0.333267   0.000000
     2  P    0.041281  -0.000000
     3  H    0.161595   0.000000
     4  H   -0.031593   0.000000
     5  H    0.161983  -0.000000
 Sum of Mulliken charges =  -0.00000  -0.00000

 Dipole moment (field-independent basis, Debye):
    X=             -2.7541    Y=             -0.5921    Z=             -0.0006  Tot=              2.8170
 Quadrupole moment (field-independent basis, Debye-Ang):
   XX=            -14.4176   YY=            -21.2589   ZZ=            -25.5736
   XY=             -1.5580   XZ=             -0.0007   YZ=              0.0006

 Normal termination of Gaussian 16 at Mon Apr 21 19:17:08 2025.
