 Gaussian 16, Revision A.03,
 Gaussian 16:  ES64L-G16RevA.03 25-Dec-2016

 ---------------------------------------
 #p UM062X/6-311+G** force int=superfine
 ---------------------------------------

 -------------------
 Title Card Required
 -------------------
 Symbolic Z-matrix:
 Charge =  1 Multiplicity = 2

                         Standard orientation:
 ---------------------------------------------------------------------
 Center     Atomic      Atomic             Coordinates (Angstroms)
 Number     Number       Type             X           Y           Z
 ---------------------------------------------------------------------
      1          6           0        1.117985    0.939227   -1.641676
      2          6           0       -1.117986   -0.939223    1.641677
      3          1           0       -2.014440   -0.983727    1.035194
      4          1           0        0.939044    0.082763   -2.280324
      5          1           0       -0.939436   -0.083356    2.281236
      6          1           0       -0.432223   -1.777643    1.655860
      7          1           0        2.014409    0.983956   -1.035166
      8          1           0        0.432654    1.777986   -1.656807
 ---------------------------------------------------------------------

 SCF Done:  E(UM062X) =  -79.3140536503     A.U. after   10 cycles

 The electronic state is 2-A.
 Alpha  occ. eigenvalues --  -10.82831 -10.82831  -1.01459  -1.01265  -0.72573
 Alpha  occ. eigenvalues --   -0.72572  -0.72526  -0.72525  -0.45979
 Alpha virt. eigenvalues --   -0.37888  -0.12294  -0.10023  -0.09002  -0.09002
 Alpha virt. eigenvalues --   -0.06190  -0.06189  -0.04451  -0.02521   0.00641
 Alpha virt. eigenvalues --    0.00644   0.01550   0.01552   0.02261   0.09184

  Beta  occ. eigenvalues --  -10.82604 -10.82604  -0.98792  -0.98704  -0.72032
  Beta  occ. eigenvalues --   -0.72031  -0.71978  -0.71977
  Beta virt. eigenvalues --   -0.31262  -0.26683  -0.17104  -0.10248  -0.10181
  Beta virt. eigenvalues --   -0.10178  -0.06122  -0.06122  -0.05786  -0.01549
  Beta virt. eigenvalues --    0.00582   0.00585   0.01796   0.01798   0.02260

 Mulliken charges and spin densities:
               1          2
     1  C   -0.234684   0.559492
     2  C   -0.234686   0.559491
     3  H    0.244917  -0.019824
     4  H    0.244862  -0.019846
     5  H    0.244882  -0.019849
     6  H    0.244887  -0.019818
     7  H    0.244917  -0.019825
     8  H    0.244905  -0.019821
 Sum of Mulliken charges =   1.00000   1.00000

 Dipole moment (field-independent basis, Debye):
    X=              0.0000    Y=             -0.0000    Z=             -0.0000  Tot=              0.0000
 Quadrupole moment (field-independent basis, Debye-Ang):
   XX=             -5.2688   YY=             -6.9924   ZZ=              1.4930
   XY=              4.9169   XZ=             -8.5934   YZ=             -7.2182

 Normal termination of Gaussian 16 at Tue Nov 19 08:46:36 2024.
 Gaussian 16, Revision A.03,
 Gaussian 16:  ES64L-G16RevA.03 25-Dec-2016

 ---------------------------------------
 #p UM062X/6-311+G** force int=superfine
 ---------------------------------------

 -------------------
 Title Card Required
 -------------------
 Symbolic Z-matrix:
 Charge =  1 Multiplicity = 2

                         Standard orientation:
 ---------------------------------------------------------------------
 Center     Atomic      Atomic             Coordinates (Angstroms)
 Number     Number       Type             X           Y           Z
 ---------------------------------------------------------------------
      1          6           0        0.966146    0.966410   -1.738576
      2          6           0       -0.966147   -0.966407    1.738577
      3          1           0       -1.880390   -1.113505    1.176515
      4          1           0        0.835511    0.071037   -2.334077
      5          1           0       -0.835814   -0.071624    2.335036
      6          1           0       -0.209589   -1.741502    1.753472
      7          1           0        1.880341    1.113732   -1.176495
      8          1           0        0.209951    1.741843   -1.754456
 ---------------------------------------------------------------------

 SCF Done:  E(UM062X) =  -79.3138786386     A.U. after   10 cycles

 The electronic state is 2-A.
 Alpha  occ. eigenvalues --  -10.82790 -10.82789  -1.01421  -1.01233  -0.72538
 Alpha  occ. eigenvalues --   -0.72537  -0.72493  -0.72493  -0.45896
 Alpha virt. eigenvalues --   -0.37899  -0.12266  -0.10013  -0.08976  -0.08976
 Alpha virt. eigenvalues --   -0.06188  -0.06188  -0.04458  -0.02493   0.00683
 Alpha virt. eigenvalues --    0.00686   0.01563   0.01565   0.02243   0.09203

  Beta  occ. eigenvalues --  -10.82562 -10.82562  -0.98753  -0.98671  -0.71996
  Beta  occ. eigenvalues --   -0.71995  -0.71945  -0.71944
  Beta virt. eigenvalues --   -0.31124  -0.26683  -0.17074  -0.10249  -0.10117
  Beta virt. eigenvalues --   -0.10113  -0.06116  -0.06116  -0.05801  -0.01520
  Beta virt. eigenvalues --    0.00636   0.00639   0.01809   0.01811   0.02266

 Mulliken charges and spin densities:
               1          2
     1  C   -0.233677   0.559759
     2  C   -0.233675   0.559761
     3  H    0.244580  -0.019914
     4  H    0.244539  -0.019920
     5  H    0.244558  -0.019924
     6  H    0.244538  -0.019923
     7  H    0.244581  -0.019914
     8  H    0.244556  -0.019925
 Sum of Mulliken charges =   1.00000   1.00000

 Dipole moment (field-independent basis, Debye):
    X=              0.0000    Y=             -0.0000    Z=             -0.0000  Tot=              0.0000
 Quadrupole moment (field-independent basis, Debye-Ang):
   XX=             -6.7530   YY=             -6.7520   ZZ=              3.0193
   XY=              4.3702   XZ=             -7.8610   YZ=             -7.8618

 Normal termination of Gaussian 16 at Tue Nov 19 08:46:45 2024.
 Gaussian 16, Revision A.03,
 Gaussian 16:  ES64L-G16RevA.03 25-Dec-2016

 ---------------------------------------
 #p UM062X/6-311+G** force int=superfine
 ---------------------------------------

 -------------------
 Title Card Required
 -------------------
 Symbolic Z-matrix:
 Charge =  1 Multiplicity = 2

                         Standard orientation:
 ---------------------------------------------------------------------
 Center     Atomic      Atomic             Coordinates (Angstroms)
 Number     Number       Type             X           Y           Z
 ---------------------------------------------------------------------
      1          6           0        0.942264    0.973871   -1.765515
      2          6           0       -0.942266   -0.973868    1.765516
      3          1           0       -1.858347   -1.140423    1.211978
      4          1           0        0.821466    0.071505   -2.352441
      5          1           0       -0.821754   -0.072092    2.353411
      6          1           0       -0.172933   -1.736258    1.780392
      7          1           0        1.858294    1.140651   -1.211960
      8          1           0        0.173283    1.736598   -1.781386
 ---------------------------------------------------------------------

 SCF Done:  E(UM062X) =  -79.3137126514     A.U. after   10 cycles

 The electronic state is 2-A.
 Alpha  occ. eigenvalues --  -10.82749 -10.82748  -1.01383  -1.01202  -0.72503
 Alpha  occ. eigenvalues --   -0.72502  -0.72461  -0.72460  -0.45816
 Alpha virt. eigenvalues --   -0.37909  -0.12238  -0.10003  -0.08951  -0.08951
 Alpha virt. eigenvalues --   -0.06187  -0.06187  -0.04465  -0.02465   0.00725
 Alpha virt. eigenvalues --    0.00727   0.01576   0.01578   0.02226   0.09220

  Beta  occ. eigenvalues --  -10.82520 -10.82520  -0.98715  -0.98638  -0.71960
  Beta  occ. eigenvalues --   -0.71960  -0.71913  -0.71912
  Beta virt. eigenvalues --   -0.30991  -0.26683  -0.17044  -0.10250  -0.10053
  Beta virt. eigenvalues --   -0.10049  -0.06111  -0.06110  -0.05815  -0.01491
  Beta virt. eigenvalues --    0.00689   0.00692   0.01822   0.01825   0.02273

 Mulliken charges and spin densities:
               1          2
     1  C   -0.232692   0.560017
     2  C   -0.232693   0.560017
     3  H    0.244243  -0.020009
     4  H    0.244198  -0.020021
     5  H    0.244217  -0.020023
     6  H    0.244232  -0.019984
     7  H    0.244244  -0.020010
     8  H    0.244251  -0.019987
 Sum of Mulliken charges =   1.00000   1.00000

 Dipole moment (field-independent basis, Debye):
    X=              0.0000    Y=             -0.0000    Z=             -0.0000  Tot=              0.0000
 Quadrupole moment (field-independent basis, Debye-Ang):
   XX=             -6.9685   YY=             -6.6865   ZZ=              3.4537
   XY=              4.2930   XZ=             -7.7818   YZ=             -8.0415

 Normal termination of Gaussian 16 at Tue Nov 19 08:46:54 2024.
 Gaussian 16, Revision A.03,
 Gaussian 16:  ES64L-G16RevA.03 25-Dec-2016

 ---------------------------------------
 #p UM062X/6-311+G** force int=superfine
 ---------------------------------------

 -------------------
 Title Card Required
 -------------------
 Symbolic Z-matrix:
 Charge =  1 Multiplicity = 2

                         Standard orientation:
 ---------------------------------------------------------------------
 Center     Atomic      Atomic             Coordinates (Angstroms)
 Number     Number       Type             X           Y           Z
 ---------------------------------------------------------------------
      1          6           0        1.045120    0.973059   -1.725665
      2          6           0       -1.045122   -0.973056    1.725666
      3          1           0       -1.953292   -1.077318    1.144579
      4          1           0        0.893392    0.093105   -2.338818
      5          1           0       -0.893738   -0.093701    2.339768
      6          1           0       -0.316848   -1.774748    1.739799
      7          1           0        1.953251    1.077548   -1.144556
      8          1           0        0.317243    1.775096   -1.740778
 ---------------------------------------------------------------------

 SCF Done:  E(UM062X) =  -79.3135549776     A.U. after   10 cycles

 The electronic state is 2-A.
 Alpha  occ. eigenvalues --  -10.82708 -10.82707  -1.01346  -1.01170  -0.72469
 Alpha  occ. eigenvalues --   -0.72468  -0.72429  -0.72429  -0.45737
 Alpha virt. eigenvalues --   -0.37919  -0.12211  -0.09993  -0.08926  -0.08925
 Alpha virt. eigenvalues --   -0.06186  -0.06186  -0.04472  -0.02438   0.00765
 Alpha virt. eigenvalues --    0.00768   0.01590   0.01592   0.02210   0.09235

  Beta  occ. eigenvalues --  -10.82480 -10.82479  -0.98677  -0.98605  -0.71925
  Beta  occ. eigenvalues --   -0.71925  -0.71881  -0.71880
  Beta virt. eigenvalues --   -0.30867  -0.26682  -0.17019  -0.10251  -0.09990
  Beta virt. eigenvalues --   -0.09985  -0.06105  -0.06105  -0.05832  -0.01463
  Beta virt. eigenvalues --    0.00740   0.00743   0.01835   0.01838   0.02278

 Mulliken charges and spin densities:
               1          2
     1  C   -0.231752   0.560245
     2  C   -0.231750   0.560246
     3  H    0.243952  -0.020061
     4  H    0.243893  -0.020088
     5  H    0.243912  -0.020090
     6  H    0.243886  -0.020095
     7  H    0.243954  -0.020060
     8  H    0.243906  -0.020097
 Sum of Mulliken charges =   1.00000   1.00000

 Dipole moment (field-independent basis, Debye):
    X=              0.0000    Y=             -0.0000    Z=             -0.0000  Tot=              0.0000
 Quadrupole moment (field-independent basis, Debye-Ang):
   XX=             -6.0150   YY=             -6.6967   ZZ=              2.7954
   XY=              4.7550   XZ=             -8.4318   YZ=             -7.8490

 Normal termination of Gaussian 16 at Tue Nov 19 08:47:03 2024.
 Gaussian 16, Revision A.03,
 Gaussian 16:  ES64L-G16RevA.03 25-Dec-2016

 ---------------------------------------
 #p UM062X/6-311+G** force int=superfine
 ---------------------------------------

 -------------------
 Title Card Required
 -------------------
 Symbolic Z-matrix:
 Charge =  1 Multiplicity = 2

                         Standard orientation:
 ---------------------------------------------------------------------
 Center     Atomic      Atomic             Coordinates (Angstroms)
 Number     Number       Type             X           Y           Z
 ---------------------------------------------------------------------
      1          6           0        1.180610    0.956090   -1.665295
      2          6           0       -1.180611   -0.956087    1.665296
      3          1           0       -2.071192   -0.979181    1.049184
      4          1           0        0.992049    0.107712   -2.311788
      5          1           0       -0.992475   -0.108315    2.312711
      6          1           0       -0.509679   -1.806339    1.678505
      7          1           0        2.071165    0.979412   -1.049155
      8          1           0        0.510138    1.806692   -1.679462
 ---------------------------------------------------------------------

 SCF Done:  E(UM062X) =  -79.3134032642     A.U. after   10 cycles

 The electronic state is 2-A.
 Alpha  occ. eigenvalues --  -10.82668 -10.82667  -1.01310  -1.01139  -0.72435
 Alpha  occ. eigenvalues --   -0.72435  -0.72398  -0.72397  -0.45659
 Alpha virt. eigenvalues --   -0.37927  -0.12184  -0.09982  -0.08900  -0.08900
 Alpha virt. eigenvalues --   -0.06185  -0.06185  -0.04479  -0.02410   0.00805
 Alpha virt. eigenvalues --    0.00808   0.01603   0.01605   0.02194   0.09247

  Beta  occ. eigenvalues --  -10.82439 -10.82439  -0.98640  -0.98573  -0.71891
  Beta  occ. eigenvalues --   -0.71890  -0.71849  -0.71849
  Beta virt. eigenvalues --   -0.30759  -0.26678  -0.17013  -0.10251  -0.09932
  Beta virt. eigenvalues --   -0.09927  -0.06100  -0.06099  -0.05855  -0.01434
  Beta virt. eigenvalues --    0.00790   0.00794   0.01849   0.01851   0.02281

 Mulliken charges and spin densities:
               1          2
     1  C   -0.230838   0.560451
     2  C   -0.230839   0.560451
     3  H    0.243638  -0.020141
     4  H    0.243583  -0.020163
     5  H    0.243604  -0.020164
     6  H    0.243597  -0.020146
     7  H    0.243639  -0.020142
     8  H    0.243616  -0.020147
 Sum of Mulliken charges =   1.00000   1.00000

 Dipole moment (field-independent basis, Debye):
    X=              0.0000    Y=             -0.0000    Z=             -0.0000  Tot=              0.0000
 Quadrupole moment (field-independent basis, Debye-Ang):
   XX=             -4.6087   YY=             -6.8524   ZZ=              1.8315
   XY=              5.2748   XZ=             -9.1867   YZ=             -7.4383

 Normal termination of Gaussian 16 at Tue Nov 19 08:47:12 2024.
 Gaussian 16, Revision A.03,
 Gaussian 16:  ES64L-G16RevA.03 25-Dec-2016

 ---------------------------------------
 #p UM062X/6-311+G** force int=superfine
 ---------------------------------------

 -------------------
 Title Card Required
 -------------------
 Symbolic Z-matrix:
 Charge =  1 Multiplicity = 2

                         Standard orientation:
 ---------------------------------------------------------------------
 Center     Atomic      Atomic             Coordinates (Angstroms)
 Number     Number       Type             X           Y           Z
 ---------------------------------------------------------------------
      1          6           0        1.253904    0.944329   -1.637572
      2          6           0       -1.253905   -0.944326    1.637573
      3          1           0       -2.132248   -0.926647    1.003995
      4          1           0        1.048345    0.112728   -2.300440
      5          1           0       -1.048814   -0.113331    2.301351
      6          1           0       -0.613423   -1.817728    1.650222
      7          1           0        2.132229    0.926879   -1.003963
      8          1           0        0.613916    1.818082   -1.651170
 ---------------------------------------------------------------------

 SCF Done:  E(UM062X) =  -79.3132592958     A.U. after   10 cycles

 The electronic state is 2-A.
 Alpha  occ. eigenvalues --  -10.82629 -10.82628  -1.01275  -1.01109  -0.72402
 Alpha  occ. eigenvalues --   -0.72402  -0.72367  -0.72366  -0.45583
 Alpha virt. eigenvalues --   -0.37935  -0.12158  -0.09971  -0.08875  -0.08875
 Alpha virt. eigenvalues --   -0.06184  -0.06183  -0.04487  -0.02383   0.00844
 Alpha virt. eigenvalues --    0.00847   0.01617   0.01619   0.02180   0.09257

  Beta  occ. eigenvalues --  -10.82400 -10.82400  -0.98604  -0.98541  -0.71857
  Beta  occ. eigenvalues --   -0.71857  -0.71818  -0.71817
  Beta virt. eigenvalues --   -0.30656  -0.26673  -0.17011  -0.10251  -0.09872
  Beta virt. eigenvalues --   -0.09869  -0.06095  -0.06094  -0.05880  -0.01406
  Beta virt. eigenvalues --    0.00839   0.00843   0.01863   0.01865   0.02285

 Mulliken charges and spin densities:
               1          2
     1  C   -0.229926   0.560672
     2  C   -0.229931   0.560668
     3  H    0.243341  -0.020207
     4  H    0.243284  -0.020231
     5  H    0.243306  -0.020230
     6  H    0.243284  -0.020231
     7  H    0.243340  -0.020208
     8  H    0.243302  -0.020233
 Sum of Mulliken charges =   1.00000   1.00000

 Dipole moment (field-independent basis, Debye):
    X=              0.0000    Y=             -0.0000    Z=             -0.0000  Tot=              0.0000
 Quadrupole moment (field-independent basis, Debye-Ang):
   XX=             -3.7788   YY=             -6.9592   ZZ=              1.3973
   XY=              5.5306   XZ=             -9.5897   YZ=             -7.2209

 Normal termination of Gaussian 16 at Tue Nov 19 08:47:20 2024.
