 Gaussian 16, Revision A.03,
 Gaussian 16:  ES64L-G16RevA.03 25-Dec-2016

 --------------------------------------------
 #p opt UM062X/6-311+G** nosymm int=superfine
 --------------------------------------------

 -------------------
 Title Card Required
 -------------------
 Symbolic Z-matrix:
 Charge =  0 Multiplicity = 1

 SCF Done:  E(UM062X) =  -80.4089632966     A.U. after   16 cycles
 SCF Done:  E(UM062X) =  -80.4123001907     A.U. after    9 cycles
 SCF Done:  E(UM062X) =  -80.4123480116     A.U. after    9 cycles
 Optimization completed.
    -- Stationary point found.

                          Input orientation:
 ---------------------------------------------------------------------
 Center     Atomic      Atomic             Coordinates (Angstroms)
 Number     Number       Type             X           Y           Z
 ---------------------------------------------------------------------
      1          5           0       -1.967066    0.000000    0.000000
      2          7           0        1.967066    0.000000    0.000000
      3          1           0       -3.200025   -0.000587    0.000000
      4          1           0        3.006345    0.000500    0.000000
 ---------------------------------------------------------------------

 Alpha  occ. eigenvalues --  -14.82576  -7.12036  -0.89049  -0.54244  -0.45566
 Alpha  occ. eigenvalues --   -0.33226  -0.27236
 Alpha virt. eigenvalues --   -0.12097  -0.03981  -0.03936   0.02598   0.04010
 Alpha virt. eigenvalues --    0.06649   0.06751   0.09567   0.13841   0.14868
 Alpha virt. eigenvalues --    0.16981   0.19417   0.25266   0.38645   0.42487

  Beta  occ. eigenvalues --  -14.82576  -7.12036  -0.89049  -0.54244  -0.45566
  Beta  occ. eigenvalues --   -0.33226  -0.27236
  Beta virt. eigenvalues --   -0.12097  -0.03981  -0.03936   0.02598   0.04010
  Beta virt. eigenvalues --    0.06649   0.06751   0.09567   0.13841   0.14868
  Beta virt. eigenvalues --    0.16981   0.19417   0.25266   0.38645   0.42487

 Mulliken charges and spin densities:
               1          2
     1  B   -0.010170   0.000000
     2  N   -0.193624   0.000000
     3  H   -0.008808  -0.000000
     4  H    0.212602  -0.000000
 Sum of Mulliken charges =  -0.00000   0.00000

 Dipole moment (field-independent basis, Debye):
    X=              0.2006    Y=             -0.0000    Z=              0.0000  Tot=              0.2006
 Quadrupole moment (field-independent basis, Debye-Ang):
   XX=             -3.2436   YY=            -11.8593   ZZ=            -15.1388
   XY=              0.0015   XZ=              0.0000   YZ=             -0.0000

 Normal termination of Gaussian 16 at Mon Apr 21 18:09:14 2025.
