 Gaussian 16, Revision A.03,
 Gaussian 16:  ES64L-G16RevA.03 25-Dec-2016

 ---------------------------------------------------------------------
 #p opt UM062X/6-311+G** nosymm int=superfine SCF=(Tight,MaxCycle=200)
 ---------------------------------------------------------------------

 -------------------
 Title Card Required
 -------------------
 Symbolic Z-matrix:
 Charge =  1 Multiplicity = 2

 SCF Done:  E(UM062X) =  -1615.55490119     A.U. after   21 cycles
 SCF Done:  E(UM062X) =  -1615.56745825     A.U. after   20 cycles
 SCF Done:  E(UM062X) =  -1615.56752332     A.U. after   21 cycles
 SCF Done:  E(UM062X) =  -1615.56922964     A.U. after   21 cycles
 SCF Done:  E(UM062X) =  -1615.55910177     A.U. after   22 cycles
 SCF Done:  E(UM062X) =  -1615.57068332     A.U. after   21 cycles
 SCF Done:  E(UM062X) =  -1615.57208176     A.U. after   20 cycles
 SCF Done:  E(UM062X) =  -1615.57187793     A.U. after   20 cycles
 SCF Done:  E(UM062X) =  -1615.57154089     A.U. after   19 cycles
 SCF Done:  E(UM062X) =  -1615.57094284     A.U. after   19 cycles
 SCF Done:  E(UM062X) =  -1615.57237244     A.U. after   15 cycles
 SCF Done:  E(UM062X) =  -1615.57294680     A.U. after   19 cycles
 SCF Done:  E(UM062X) =  -1615.57296839     A.U. after   17 cycles
 SCF Done:  E(UM062X) =  -1615.57297824     A.U. after   16 cycles
 SCF Done:  E(UM062X) =  -1615.57297917     A.U. after   14 cycles
 SCF Done:  E(UM062X) =  -1615.57297930     A.U. after   12 cycles
 SCF Done:  E(UM062X) =  -1615.57297934     A.U. after   12 cycles
 SCF Done:  E(UM062X) =  -1615.57297936     A.U. after   11 cycles
 Optimization completed.
    -- Stationary point found.

                          Input orientation:
 ---------------------------------------------------------------------
 Center     Atomic      Atomic             Coordinates (Angstroms)
 Number     Number       Type             X           Y           Z
 ---------------------------------------------------------------------
      1          6           0       -1.169898    0.000000   -0.000000
      2          6           0        1.169898    0.000000    0.000000
      3          6           0       -0.000010   -2.164310    0.000933
      4          6           0       -0.000010   -3.537214    0.001490
      5          6           0       -1.128809   -4.325953    0.293770
      6          6           0       -1.200350   -1.480604    0.275340
      7          6           0        0.656654   -5.722673   -0.169258
      8          1           0        1.264838   -6.601135   -0.331276
      9          6           0       -1.454744    0.852223    1.150540
     10          6           0       -0.656813   -5.722535    0.173436
     11          1           0       -1.265048   -6.600868    0.335963
     12          6           0        1.128728   -4.326189   -0.290416
     13          6           0        1.200303   -1.480821   -0.274162
     14          6           0        1.657727    2.265436   -1.142729
     15          6           0       -1.458308    0.288218   -1.412561
     16          6           0       -1.878147    2.937887    2.362540
     17          1           0       -2.038460    4.009273    2.330929
     18          6           0       -2.294983   -3.659015    0.602342
     19          1           0       -3.209875   -4.188732    0.842599
     20          6           0       -1.554641    1.583376   -2.008139
     21          6           0        2.320523   -2.229203   -0.580162
     22          1           0        3.261981   -1.726179   -0.774858
     23          6           0        1.458390    0.289360    1.412325
     24          6           0        1.554638    1.585002    2.006862
     25          6           0        2.294848   -3.659498   -0.599710
     26          1           0        3.209672   -4.189404   -0.839809
     27          6           0       -1.657827    2.266307    1.140967
     28          6           0       -1.455824    0.221998    2.423771
     29          1           0       -1.272462   -0.839592    2.484687
     30          6           0        1.600835   -0.813457    2.301404
     31          1           0        1.571806   -1.822010    1.920239
     32          6           0       -1.896297    2.284635    3.573664
     33          1           0       -2.072283    2.834207    4.490333
     34          6           0       -2.320632   -2.228738    0.581723
     35          1           0       -3.262121   -1.725554    0.775855
     36          6           0       -1.720985    1.697084   -3.405294
     37          1           0       -1.772185    2.693003   -3.829623
     38          6           0        1.454733    0.851337   -1.151200
     39          6           0       -1.613627    3.131753   -0.007402
     40          1           0       -1.661232    4.188346    0.237614
     41          6           0       -1.848198    0.602030   -4.227483
     42          1           0       -1.993941    0.728459   -5.293270
     43          6           0       -1.539068    2.846944   -1.321651
     44          1           0       -1.530775    3.707350   -1.983864
     45          6           0        1.721173    1.699853    3.403901
     46          1           0        1.772304    2.696122    3.827419
     47          6           0       -1.672883    0.904767    3.599094
     48          1           0       -1.659574    0.367250    4.539444
     49          6           0       -1.600603   -0.815329   -2.300754
     50          1           0       -1.571549   -1.823570   -1.918763
     51          6           0        1.848602    0.605478    4.226953
     52          1           0        1.994480    0.732775    5.292618
     53          6           0        1.878260    2.936040   -2.364794
     54          1           0        2.038534    4.007456   -2.334014
     55          6           0        1.803361   -0.667857    3.656352
     56          1           0        1.924470   -1.550707    4.272047
     57          6           0        1.896640    2.281813   -3.575390
     58          1           0        2.072834    2.830645   -4.492462
     59          6           0        1.613099    3.131816    0.004924
     60          1           0        1.660305    4.188225   -0.240964
     61          6           0       -1.802974   -0.670839   -3.655846
     62          1           0       -1.923963   -1.554194   -4.270841
     63          6           0        1.538624    2.848035    1.319396
     64          1           0        1.529980    3.708958    1.980934
     65          6           0        1.455947    0.220102   -2.423928
     66          1           0        1.272575   -0.841531   -2.484019
     67          6           0        1.673171    0.901939   -3.599765
     68          1           0        1.659957    0.363684   -4.539694
 ---------------------------------------------------------------------

 Alpha  occ. eigenvalues --  -10.71698 -10.71695 -10.68664 -10.68664 -10.68560
 Alpha  occ. eigenvalues --  -10.68560 -10.68344 -10.68343 -10.67990 -10.67990
 Alpha  occ. eigenvalues --  -10.66849 -10.66849 -10.66657 -10.66657 -10.66537
 Alpha  occ. eigenvalues --  -10.66537 -10.66052 -10.66052 -10.65940 -10.65940
 Alpha  occ. eigenvalues --  -10.65774 -10.65774 -10.65728 -10.65728 -10.65707
 Alpha  occ. eigenvalues --  -10.65706 -10.65643 -10.65642 -10.65617 -10.65616
 Alpha  occ. eigenvalues --  -10.65558 -10.65558 -10.65526 -10.65526 -10.65261
 Alpha  occ. eigenvalues --  -10.65261 -10.65202 -10.65042 -10.65042 -10.64114
 Alpha  occ. eigenvalues --  -10.64017 -10.63041  -1.12827  -1.10370  -1.09988
 Alpha  occ. eigenvalues --   -1.08497  -1.07806  -1.06037  -1.04613  -1.02643
 Alpha  occ. eigenvalues --   -1.02165  -1.00664  -1.00576  -0.97926  -0.97665
 Alpha  occ. eigenvalues --   -0.96950  -0.96239  -0.95034  -0.93460  -0.93446
 Alpha  occ. eigenvalues --   -0.92778  -0.91949  -0.87684  -0.87289  -0.84966
 Alpha  occ. eigenvalues --   -0.84715  -0.83008  -0.81535  -0.81313  -0.79885
 Alpha  occ. eigenvalues --   -0.79758  -0.79522  -0.77666  -0.76426  -0.76199
 Alpha  occ. eigenvalues --   -0.75634  -0.75438  -0.73780  -0.70209  -0.69825
 Alpha  occ. eigenvalues --   -0.69142  -0.68436  -0.67741  -0.67585  -0.66996
 Alpha  occ. eigenvalues --   -0.66807  -0.65612  -0.65333  -0.65059  -0.64884
 Alpha  occ. eigenvalues --   -0.63450  -0.63050  -0.62290  -0.62229  -0.61369
 Alpha  occ. eigenvalues --   -0.61190  -0.60735  -0.60394  -0.60141  -0.60035
 Alpha  occ. eigenvalues --   -0.59602  -0.58913  -0.58716  -0.58140  -0.57834
 Alpha  occ. eigenvalues --   -0.57570  -0.56514  -0.55752  -0.55721  -0.55658
 Alpha  occ. eigenvalues --   -0.54985  -0.54249  -0.53374  -0.52849  -0.52714
 Alpha  occ. eigenvalues --   -0.52555  -0.52283  -0.52163  -0.51422  -0.51021
 Alpha  occ. eigenvalues --   -0.50942  -0.50939  -0.50524  -0.49418  -0.49019
 Alpha  occ. eigenvalues --   -0.48931  -0.48542  -0.47989  -0.44480  -0.44061
 Alpha  occ. eigenvalues --   -0.43850  -0.43052  -0.40635  -0.40337  -0.39311
 Alpha  occ. eigenvalues --   -0.38061  -0.37759  -0.37250  -0.33560
 Alpha virt. eigenvalues --   -0.18193  -0.15579  -0.15458  -0.14664  -0.10385
 Alpha virt. eigenvalues --   -0.09918  -0.08776  -0.08603  -0.08331  -0.07617
 Alpha virt. eigenvalues --   -0.07601  -0.07484  -0.06623  -0.06379  -0.06343

  Beta  occ. eigenvalues --  -10.71582 -10.71582 -10.68666 -10.68665 -10.68576
  Beta  occ. eigenvalues --  -10.68575 -10.68302 -10.68301 -10.67955 -10.67955
  Beta  occ. eigenvalues --  -10.66859 -10.66859 -10.66642 -10.66642 -10.66517
  Beta  occ. eigenvalues --  -10.66516 -10.66023 -10.66023 -10.65941 -10.65941
  Beta  occ. eigenvalues --  -10.65787 -10.65787 -10.65720 -10.65720 -10.65693
  Beta  occ. eigenvalues --  -10.65692 -10.65634 -10.65634 -10.65612 -10.65612
  Beta  occ. eigenvalues --  -10.65546 -10.65546 -10.65523 -10.65523 -10.65267
  Beta  occ. eigenvalues --  -10.65266 -10.65184 -10.65038 -10.65038 -10.64114
  Beta  occ. eigenvalues --  -10.64017 -10.63042  -1.12671  -1.10269  -1.09823
  Beta  occ. eigenvalues --   -1.08366  -1.07687  -1.05890  -1.04504  -1.02493
  Beta  occ. eigenvalues --   -1.02029  -1.00512  -1.00420  -0.97818  -0.97567
  Beta  occ. eigenvalues --   -0.96815  -0.96126  -0.94983  -0.93381  -0.93354
  Beta  occ. eigenvalues --   -0.92656  -0.91842  -0.87363  -0.87013  -0.84880
  Beta  occ. eigenvalues --   -0.84640  -0.82933  -0.81409  -0.81232  -0.79788
  Beta  occ. eigenvalues --   -0.79685  -0.79450  -0.77537  -0.76248  -0.76035
  Beta  occ. eigenvalues --   -0.75464  -0.75401  -0.73652  -0.70097  -0.69677
  Beta  occ. eigenvalues --   -0.69019  -0.68338  -0.67655  -0.67517  -0.66870
  Beta  occ. eigenvalues --   -0.66707  -0.65526  -0.65200  -0.64928  -0.64761
  Beta  occ. eigenvalues --   -0.63164  -0.63008  -0.62194  -0.62145  -0.61081
  Beta  occ. eigenvalues --   -0.61020  -0.60579  -0.60260  -0.60085  -0.59974
  Beta  occ. eigenvalues --   -0.59473  -0.58749  -0.58634  -0.58042  -0.57540
  Beta  occ. eigenvalues --   -0.57353  -0.56372  -0.55644  -0.55580  -0.55299
  Beta  occ. eigenvalues --   -0.54970  -0.53845  -0.53178  -0.52752  -0.52617
  Beta  occ. eigenvalues --   -0.52505  -0.52181  -0.52049  -0.51015  -0.50947
  Beta  occ. eigenvalues --   -0.50829  -0.50479  -0.49861  -0.49143  -0.48951
  Beta  occ. eigenvalues --   -0.48787  -0.48473  -0.47571  -0.43885  -0.43607
  Beta  occ. eigenvalues --   -0.43175  -0.42697  -0.40277  -0.40176  -0.38690
  Beta  occ. eigenvalues --   -0.37785  -0.37394  -0.36994
  Beta virt. eigenvalues --   -0.23838  -0.16671  -0.15514  -0.15096  -0.14637
  Beta virt. eigenvalues --   -0.10212  -0.09522  -0.08446  -0.08408  -0.08285
  Beta virt. eigenvalues --   -0.07580  -0.07550  -0.07312  -0.06603  -0.06354

 Mulliken charges and spin densities:
               1          2
     1  C   -0.015494   0.178188
     2  C   -0.015279   0.178218
     3  C    0.174155   0.003359
     4  C    0.111641  -0.002102
     5  C    0.108956   0.006208
     6  C    0.088262  -0.012300
     7  C   -0.302439   0.001589
     8  H    0.176372  -0.000076
     9  C    0.240156   0.015271
    10  C   -0.302612   0.001590
    11  H    0.176372  -0.000077
    12  C    0.109109   0.006207
    13  C    0.088367  -0.012297
    14  C    0.202593   0.063346
    15  C    0.283848  -0.003337
    16  C   -0.212881  -0.026619
    17  H    0.164000   0.000774
    18  C   -0.460005  -0.001463
    19  H    0.175504   0.000499
    20  C    0.203807   0.086488
    21  C   -0.150898   0.017471
    22  H    0.174772  -0.000598
    23  C    0.284035  -0.003346
    24  C    0.203627   0.086500
    25  C   -0.459824  -0.001465
    26  H    0.175506   0.000499
    27  C    0.202150   0.063371
    28  C   -0.121660   0.023809
    29  H    0.201132  -0.001706
    30  C   -0.275766   0.025672
    31  H    0.223887  -0.000729
    32  C   -0.334673   0.050650
    33  H    0.181079  -0.002649
    34  C   -0.150987   0.017464
    35  H    0.174763  -0.000598
    36  C   -0.113817  -0.035787
    37  H    0.164155   0.001086
    38  C    0.240207   0.015287
    39  C   -0.245826   0.068402
    40  H    0.168126  -0.004833
    41  C   -0.243448   0.039498
    42  H    0.179591  -0.001835
    43  C   -0.214760   0.031906
    44  H    0.159849  -0.002036
    45  C   -0.113985  -0.035795
    46  H    0.164157   0.001086
    47  C   -0.141740   0.002024
    48  H    0.170470  -0.001682
    49  C   -0.275809   0.025663
    50  H    0.223879  -0.000728
    51  C   -0.243511   0.039488
    52  H    0.179591  -0.001834
    53  C   -0.213267  -0.026618
    54  H    0.163997   0.000774
    55  C   -0.250702  -0.018188
    56  H    0.174986   0.000314
    57  C   -0.334819   0.050639
    58  H    0.181079  -0.002649
    59  C   -0.245471   0.068421
    60  H    0.168109  -0.004835
    61  C   -0.250713  -0.018182
    62  H    0.174985   0.000314
    63  C   -0.214666   0.031877
    64  H    0.159833  -0.002035
    65  C   -0.121664   0.023834
    66  H    0.201127  -0.001707
    67  C   -0.141986   0.002005
    68  H    0.170469  -0.001682
 Sum of Mulliken charges =   1.00000   1.00000

 Dipole moment (field-independent basis, Debye):
    X=             -0.0001    Y=              2.5121    Z=             -0.0014  Tot=              2.5121
 Quadrupole moment (field-independent basis, Debye-Ang):
   XX=           -222.4209   YY=           -174.8599   ZZ=           -176.6279
   XY=             -0.0023   XZ=             -1.7948   YZ=              0.0021

 Normal termination of Gaussian 16 at Fri Mar 21 09:54:31 2025.
