 Gaussian 16, Revision A.03,
 Gaussian 16:  ES64L-G16RevA.03 25-Dec-2016

 --------------------------------------------
 #p opt UM062X/6-311+G** nosymm int=superfine
 --------------------------------------------

 -------------------
 Title Card Required
 -------------------
 Symbolic Z-matrix:
 Charge =  0 Multiplicity = 1

 SCF Done:  E(UM062X) =  -81.6962865447     A.U. after   23 cycles
 SCF Done:  E(UM062X) =  -81.7136632718     A.U. after   16 cycles
 SCF Done:  E(UM062X) =  -81.7207987517     A.U. after   16 cycles
 SCF Done:  E(UM062X) =  -81.7227220623     A.U. after   16 cycles
 SCF Done:  E(UM062X) =  -81.7264757897     A.U. after   15 cycles
 SCF Done:  E(UM062X) =  -81.7281949984     A.U. after   15 cycles
 SCF Done:  E(UM062X) =  -81.7283887840     A.U. after   12 cycles
 SCF Done:  E(UM062X) =  -81.7285871788     A.U. after   14 cycles
 SCF Done:  E(UM062X) =  -81.7287020598     A.U. after   14 cycles
 SCF Done:  E(UM062X) =  -81.7287362210     A.U. after   14 cycles
 SCF Done:  E(UM062X) =  -81.7287442076     A.U. after   11 cycles
 SCF Done:  E(UM062X) =  -81.7287446448     A.U. after   12 cycles
 Optimization completed.
    -- Stationary point found.

                          Input orientation:
 ---------------------------------------------------------------------
 Center     Atomic      Atomic             Coordinates (Angstroms)
 Number     Number       Type             X           Y           Z
 ---------------------------------------------------------------------
      1          5           0       -1.920399    0.000000    0.000000
      2          7           0        1.920399    0.000000    0.000000
      3          1           0       -2.245214   -1.125485   -0.026005
      4          1           0        1.900459    0.802355    0.638087
      5          1           0       -2.245216    1.125471   -0.026593
      6          1           0        1.900459   -0.802016    0.638514
 ---------------------------------------------------------------------

 Alpha  occ. eigenvalues --  -14.71619  -7.18560  -0.87334  -0.63276  -0.51991
 Alpha  occ. eigenvalues --   -0.47987  -0.33258  -0.23033
 Alpha virt. eigenvalues --   -0.11546  -0.09120   0.00590   0.02612   0.04163
 Alpha virt. eigenvalues --    0.04991   0.09160   0.11415   0.13557   0.17402
 Alpha virt. eigenvalues --    0.19939   0.20325   0.21711   0.27025   0.32301

  Beta  occ. eigenvalues --  -14.71619  -7.18560  -0.87334  -0.63276  -0.51991
  Beta  occ. eigenvalues --   -0.47987  -0.33258  -0.23033
  Beta virt. eigenvalues --   -0.11546  -0.09120   0.00590   0.02612   0.04163
  Beta virt. eigenvalues --    0.04991   0.09160   0.11415   0.13557   0.17402
  Beta virt. eigenvalues --    0.19939   0.20325   0.21711   0.27025   0.32301

 Mulliken charges and spin densities:
               1          2
     1  B    0.146084  -0.000000
     2  N   -0.689413   0.000000
     3  H    0.069700  -0.000000
     4  H    0.201965  -0.000000
     5  H    0.069700  -0.000000
     6  H    0.201965  -0.000000
 Sum of Mulliken charges =  -0.00000   0.00000

 Dipole moment (field-independent basis, Debye):
    X=             -5.5765    Y=              0.0005    Z=              1.8841  Tot=              5.8862
 Quadrupole moment (field-independent basis, Debye-Ang):
   XX=            -13.8717   YY=            -13.4608   ZZ=            -14.6174
   XY=              0.0010   XZ=              3.8607   YZ=             -0.0003

 Normal termination of Gaussian 16 at Mon Apr 21 17:54:24 2025.
