 Gaussian 16, Revision A.03,
 Gaussian 16:  ES64L-G16RevA.03 25-Dec-2016

 --------------------------------------------
 #p opt UM062X/6-311+G** nosymm int=superfine
 --------------------------------------------

 -------------------
 Title Card Required
 -------------------
 Symbolic Z-matrix:
 Charge =  0 Multiplicity = 1

 SCF Done:  E(UM062X) =  -92.8152943044     A.U. after   16 cycles
 SCF Done:  E(UM062X) =  -92.8172395270     A.U. after   12 cycles
 SCF Done:  E(UM062X) =  -92.8172497385     A.U. after   13 cycles
 Optimization completed.
    -- Stationary point found.

                          Input orientation:
 ---------------------------------------------------------------------
 Center     Atomic      Atomic             Coordinates (Angstroms)
 Number     Number       Type             X           Y           Z
 ---------------------------------------------------------------------
      1          6           0       -2.047395    0.000000    0.000000
      2          7           0        2.047395    0.000000    0.000000
      3          1           0       -3.172508   -0.000000    0.000000
 ---------------------------------------------------------------------

 Alpha  occ. eigenvalues --  -14.81005 -10.76502  -0.80515  -0.75929  -0.45708
 Alpha  occ. eigenvalues --   -0.25685  -0.25685
 Alpha virt. eigenvalues --   -0.18642  -0.18642  -0.07569  -0.00196   0.05942
 Alpha virt. eigenvalues --    0.05942   0.07777   0.12461   0.15388   0.17367
 Alpha virt. eigenvalues --    0.17367   0.22851   0.41448   0.51769   0.51769

  Beta  occ. eigenvalues --  -14.81005 -10.76502  -0.80515  -0.75929  -0.45708
  Beta  occ. eigenvalues --   -0.25685  -0.25685
  Beta virt. eigenvalues --   -0.18642  -0.18642  -0.07569  -0.00196   0.05942
  Beta virt. eigenvalues --    0.05942   0.07777   0.12461   0.15388   0.17367
  Beta virt. eigenvalues --    0.17367   0.22851   0.41448   0.51769   0.51769

 Mulliken charges and spin densities:
               1          2
     1  C    0.092551   0.000000
     2  N   -0.260093  -0.000000
     3  H    0.167542   0.000000
 Sum of Mulliken charges =  -0.00000   0.00000

 Dipole moment (field-independent basis, Debye):
    X=             -6.9159    Y=             -0.0000    Z=             -0.0000  Tot=              6.9159
 Quadrupole moment (field-independent basis, Debye-Ang):
   XX=             -3.8872   YY=            -14.1891   ZZ=            -14.1891
   XY=              0.0000   XZ=             -0.0000   YZ=             -0.0000

 Normal termination of Gaussian 16 at Mon Apr 21 18:39:33 2025.
