 Gaussian 16, Revision A.03,
 Gaussian 16:  ES64L-G16RevA.03 25-Dec-2016

 ----------------------------------------------------------------------
 #p opt UM062X/6-311+G** nosymm int=superfine SCF=(MaxCycle=200,NoVarAc
 c,noincfock) guess=read
 ----------------------------------------------------------------------

 -------------------
 Title Card Required
 -------------------
 Symbolic Z-matrix:
 Charge =  0 Multiplicity = 1

 SCF Done:  E(UM062X) =  -115.535660970     A.U. after   24 cycles
 SCF Done:  E(UM062X) =  -115.542503335     A.U. after   10 cycles
 SCF Done:  E(UM062X) =  -115.546733165     A.U. after   12 cycles
 SCF Done:  E(UM062X) =  -115.547204989     A.U. after   10 cycles
 SCF Done:  E(UM062X) =  -115.547291145     A.U. after   12 cycles
 SCF Done:  E(UM062X) =  -115.547294948     A.U. after    8 cycles
 SCF Done:  E(UM062X) =  -115.547299147     A.U. after    9 cycles
 SCF Done:  E(UM062X) =  -115.547320428     A.U. after   11 cycles
 SCF Done:  E(UM062X) =  -115.547614198     A.U. after   25 cycles
 SCF Done:  E(UM062X) =  -115.547743463     A.U. after   34 cycles
 SCF Done:  E(UM062X) =  -115.548892497     A.U. after   31 cycles
 SCF Done:  E(UM062X) =  -115.549030869     A.U. after   12 cycles
 SCF Done:  E(UM062X) =  -115.549246543     A.U. after   12 cycles
 SCF Done:  E(UM062X) =  -115.549540682     A.U. after   12 cycles
 SCF Done:  E(UM062X) =  -115.549678031     A.U. after   17 cycles
 SCF Done:  E(UM062X) =  -115.549728977     A.U. after   11 cycles
 SCF Done:  E(UM062X) =  -115.549734851     A.U. after   10 cycles
 SCF Done:  E(UM062X) =  -115.549734773     A.U. after    9 cycles
 SCF Done:  E(UM062X) =  -115.549734970     A.U. after   10 cycles
 SCF Done:  E(UM062X) =  -115.549734953     A.U. after   10 cycles
 Optimization completed.
    -- Stationary point found.

                          Input orientation:
 ---------------------------------------------------------------------
 Center     Atomic      Atomic             Coordinates (Angstroms)
 Number     Number       Type             X           Y           Z
 ---------------------------------------------------------------------
      1          6           0       -2.032203    0.000000   -0.000000
      2          8           0        2.032203    0.000000    0.000000
      3          1           0        1.057506   -0.004012    0.000154
      4          1           0       -2.082078   -0.568104    0.916468
      5          1           0       -2.066455    1.078354    0.033776
      6          1           0       -2.078828   -0.509472   -0.950483
 ---------------------------------------------------------------------

 Alpha  occ. eigenvalues --  -19.67365 -10.56201  -1.05901  -0.79448  -0.52967
 Alpha  occ. eigenvalues --   -0.50645  -0.50645  -0.40003  -0.30552
 Alpha virt. eigenvalues --   -0.10259   0.01940   0.05186   0.05205   0.06977
 Alpha virt. eigenvalues --    0.13543   0.18015   0.18058   0.18217   0.19076
 Alpha virt. eigenvalues --    0.19210   0.19721   0.25100   0.42717   0.42734

  Beta  occ. eigenvalues --  -19.68954 -10.55526  -1.14157  -0.74680  -0.56120
  Beta  occ. eigenvalues --   -0.50073  -0.49364  -0.49360  -0.43642
  Beta virt. eigenvalues --   -0.07182   0.00081   0.04406   0.04454   0.08993
  Beta virt. eigenvalues --    0.12843   0.17541   0.17557   0.17957   0.18764
  Beta virt. eigenvalues --    0.18844   0.20058   0.26256   0.41855   0.41874

 Mulliken charges and spin densities:
               1          2
     1  C   -0.519078   1.139269
     2  O   -0.255820  -1.009021
     3  H    0.256350   0.015311
     4  H    0.172689  -0.048490
     5  H    0.173194  -0.048566
     6  H    0.172666  -0.048502
 Sum of Mulliken charges =  -0.00000   0.00000

 Dipole moment (field-independent basis, Debye):
    X=             -2.1558    Y=             -0.0057    Z=              0.0001  Tot=              2.1558
 Quadrupole moment (field-independent basis, Debye-Ang):
   XX=            -20.1905   YY=            -14.0957   ZZ=            -12.7567
   XY=              0.0084   XZ=             -0.0019   YZ=             -0.0542

 Normal termination of Gaussian 16 at Mon Apr 21 23:21:20 2025.
