 Gaussian 16, Revision A.03,
 Gaussian 16:  ES64L-G16RevA.03 25-Dec-2016

 --------------------------------------------
 #p opt UM062X/6-311+G** nosymm int=superfine
 --------------------------------------------

 -------------------
 Title Card Required
 -------------------
 Symbolic Z-matrix:
 Charge =  0 Multiplicity = 1

 SCF Done:  E(UM062X) =  -76.8945455293     A.U. after   14 cycles
 SCF Done:  E(UM062X) =  -76.8955737206     A.U. after   13 cycles
 SCF Done:  E(UM062X) =  -76.8968441538     A.U. after   15 cycles
 SCF Done:  E(UM062X) =  -76.8971160345     A.U. after   14 cycles
 SCF Done:  E(UM062X) =  -76.8972249170     A.U. after   15 cycles
 SCF Done:  E(UM062X) =  -76.8972421889     A.U. after   14 cycles
 SCF Done:  E(UM062X) =  -76.8972444166     A.U. after   13 cycles
 SCF Done:  E(UM062X) =  -76.8972449359     A.U. after   13 cycles
 Optimization completed.
    -- Stationary point found.

                          Input orientation:
 ---------------------------------------------------------------------
 Center     Atomic      Atomic             Coordinates (Angstroms)
 Number     Number       Type             X           Y           Z
 ---------------------------------------------------------------------
      1          6           0       -1.632625    0.000000    0.000000
      2          6           0        1.632625    0.000000    0.000000
      3          1           0       -1.495753   -0.651922    0.896976
      4          1           0        1.495794    0.653707   -0.895683
 ---------------------------------------------------------------------

 Alpha  occ. eigenvalues --  -10.67480 -10.67478  -0.73002  -0.71920  -0.39056
 Alpha  occ. eigenvalues --   -0.38583  -0.25055
 Alpha virt. eigenvalues --   -0.10797  -0.10515  -0.08987   0.03385   0.04813
 Alpha virt. eigenvalues --    0.07269   0.07426   0.09452   0.09912   0.10885
 Alpha virt. eigenvalues --    0.14302   0.17898   0.19942   0.43800   0.45221

  Beta  occ. eigenvalues --  -10.67480 -10.67478  -0.73002  -0.71920  -0.39056
  Beta  occ. eigenvalues --   -0.38583  -0.25055
  Beta virt. eigenvalues --   -0.10797  -0.10515  -0.08987   0.03385   0.04813
  Beta virt. eigenvalues --    0.07269   0.07426   0.09452   0.09912   0.10885
  Beta virt. eigenvalues --    0.14302   0.17898   0.19942   0.43800   0.45221

 Mulliken charges and spin densities:
               1          2
     1  C   -0.146632   0.000000
     2  C   -0.146638  -0.000000
     3  H    0.146635  -0.000000
     4  H    0.146634   0.000000
 Sum of Mulliken charges =   0.00000  -0.00000

 Dipole moment (field-independent basis, Debye):
    X=              0.0000    Y=              0.0026    Z=              0.0019  Tot=              0.0033
 Quadrupole moment (field-independent basis, Debye-Ang):
   XX=            -16.9193   YY=            -12.8392   ZZ=            -13.6598
   XY=              3.2210   XZ=             -4.4223   YZ=              1.2729

 Normal termination of Gaussian 16 at Tue Dec  3 23:21:21 2024.
