 Gaussian 16, Revision A.03,
 Gaussian 16:  ES64L-G16RevA.03 25-Dec-2016

 --------------------------------------------
 #p opt UM062X/6-311+G** nosymm int=superfine
 --------------------------------------------

 -------------------
 Title Card Required
 -------------------
 Symbolic Z-matrix:
 Charge =  0 Multiplicity = 4

 SCF Done:  E(UM062X) =  -289.903341894     A.U. after   11 cycles
 SCF Done:  E(UM062X) =  -289.903660120     A.U. after   10 cycles
 SCF Done:  E(UM062X) =  -289.903660508     A.U. after    8 cycles
 Optimization completed.
    -- Stationary point found.

                          Input orientation:
 ---------------------------------------------------------------------
 Center     Atomic      Atomic             Coordinates (Angstroms)
 Number     Number       Type             X           Y           Z
 ---------------------------------------------------------------------
      1         14           0        0.962846   -0.000000    0.000000
      2          1           0        2.452939    0.000038    0.000000
 ---------------------------------------------------------------------

 Alpha  occ. eigenvalues --  -67.03346  -5.57599  -3.89168  -3.89168  -3.88867
 Alpha  occ. eigenvalues --   -0.59330  -0.38536  -0.24375  -0.24375
 Alpha virt. eigenvalues --    0.04183   0.04706   0.05655   0.05655   0.06913
 Alpha virt. eigenvalues --    0.29405   0.30909   0.30909   0.37798   0.43070
 Alpha virt. eigenvalues --    0.54407   0.54407   0.56937   0.56939   0.78862

  Beta  occ. eigenvalues --  -67.01722  -5.56568  -3.87562  -3.87124  -3.87124
  Beta  occ. eigenvalues --   -0.49270
  Beta virt. eigenvalues --   -0.18243  -0.07663  -0.07663   0.02349   0.04512
  Beta virt. eigenvalues --    0.09426   0.12448   0.12448   0.25372   0.26129
  Beta virt. eigenvalues --    0.26129   0.36160   0.39654   0.58833   0.58833

 Mulliken charges and spin densities:
               1          2
     1  Si   0.004123   2.792671
     2  H   -0.004123   0.207329
 Sum of Mulliken charges =  -0.00000   3.00000

 Dipole moment (field-independent basis, Debye):
    X=             -0.1380    Y=             -0.0000    Z=             -0.0000  Tot=              0.1380
 Quadrupole moment (field-independent basis, Debye-Ang):
   XX=            -13.2016   YY=            -15.9067   ZZ=            -15.9067
   XY=              0.0001   XZ=             -0.0000   YZ=              0.0000

 Normal termination of Gaussian 16 at Wed Apr 16 08:54:24 2025.
