 Gaussian 16, Revision A.03,
 Gaussian 16:  ES64L-G16RevA.03 25-Dec-2016

 --------------------------------------------
 #p opt UM062X/6-311+G** nosymm int=superfine
 --------------------------------------------

 -------------------
 Title Card Required
 -------------------
 Symbolic Z-matrix:
 Charge =  1 Multiplicity = 2

 SCF Done:  E(UM062X) =  -79.3526518537     A.U. after   10 cycles
 SCF Done:  E(UM062X) =  -79.3527949974     A.U. after    9 cycles
 Optimization completed.
    -- Stationary point found.

                          Input orientation:
 ---------------------------------------------------------------------
 Center     Atomic      Atomic             Coordinates (Angstroms)
 Number     Number       Type             X           Y           Z
 ---------------------------------------------------------------------
      1          6           0       -1.312538    0.000000    0.000000
      2          6           0        1.312538    0.000000    0.000000
      3          1           0        1.385417   -0.936029    0.541732
      4          1           0       -1.384393   -0.937147   -0.539932
      5          1           0        1.384999    0.937229    0.539709
      6          1           0        1.384506   -0.001141   -1.081547
      7          1           0       -1.385449    0.936103   -0.541601
      8          1           0       -1.385080    0.000917    1.081510
 ---------------------------------------------------------------------

 Alpha  occ. eigenvalues --  -10.85551 -10.85547  -1.05789  -1.02588  -0.75925
 Alpha  occ. eigenvalues --   -0.75925  -0.74253  -0.74253  -0.55997
 Alpha virt. eigenvalues --   -0.32728  -0.14981  -0.10527  -0.10527  -0.10028
 Alpha virt. eigenvalues --   -0.06207  -0.06207  -0.06095  -0.03511  -0.03508
 Alpha virt. eigenvalues --   -0.02949   0.01551   0.01553   0.05446   0.07425

  Beta  occ. eigenvalues --  -10.85355 -10.85355  -1.02600  -1.00172  -0.75235
  Beta  occ. eigenvalues --   -0.75235  -0.73710  -0.73709
  Beta virt. eigenvalues --   -0.33855  -0.23632  -0.15556  -0.11108  -0.11108
  Beta virt. eigenvalues --   -0.09623  -0.06548  -0.06547  -0.06068  -0.03453
  Beta virt. eigenvalues --   -0.03451  -0.02191   0.01944   0.01946   0.05958

 Mulliken charges and spin densities:
               1          2
     1  C   -0.281849   0.574157
     2  C   -0.281850   0.574157
     3  H    0.260642  -0.024717
     4  H    0.260597  -0.024706
     5  H    0.260622  -0.024713
     6  H    0.260586  -0.024726
     7  H    0.260643  -0.024718
     8  H    0.260609  -0.024734
 Sum of Mulliken charges =   1.00000   1.00000

 Dipole moment (field-independent basis, Debye):
    X=              0.0000    Y=             -0.0000    Z=             -0.0001  Tot=              0.0001
 Quadrupole moment (field-independent basis, Debye-Ang):
   XX=             -2.9913   YY=            -10.9577   ZZ=            -10.9579
   XY=             -0.0011   XZ=              0.0006   YZ=             -0.0001

 Normal termination of Gaussian 16 at Wed Nov 13 12:43:01 2024.
