 Gaussian 16, Revision A.03,
 Gaussian 16:  ES64L-G16RevA.03 25-Dec-2016

 ---------------------------------------
 #p UM062X/6-311+G** force int=superfine
 ---------------------------------------

 -------------------
 Title Card Required
 -------------------
 Symbolic Z-matrix:
 Charge =  1 Multiplicity = 2

                         Standard orientation:
 ---------------------------------------------------------------------
 Center     Atomic      Atomic             Coordinates (Angstroms)
 Number     Number       Type             X           Y           Z
 ---------------------------------------------------------------------
      1          6           0        0.000000    0.000000    0.546781
      2          6           0        0.000000    0.000000   -0.546781
      3          1           0        0.000000    0.000000    1.623736
      4          1           0        0.000000    0.000000   -1.623736
 ---------------------------------------------------------------------

 SCF Done:  E(UM062X) =  -76.8499685968     A.U. after    9 cycles

 Unable to determine electronic state:  an orbital has unidentified symmetry.
 Alpha  occ. eigenvalues --  -10.91720 -10.91071  -1.28456  -0.96037  -0.90658
 Alpha  occ. eigenvalues --   -0.77817  -0.74711
 Alpha virt. eigenvalues --   -0.23015  -0.21100  -0.14615  -0.14323  -0.11828
 Alpha virt. eigenvalues --   -0.10897  -0.10633  -0.04205  -0.03805  -0.03643
 Alpha virt. eigenvalues --    0.02368   0.04479   0.17603   0.18874   0.27356

  Beta  occ. eigenvalues --  -10.91430 -10.90819  -1.23129  -0.94493  -0.89982
  Beta  occ. eigenvalues --   -0.72106
  Beta virt. eigenvalues --   -0.49207  -0.19712  -0.17784  -0.15635  -0.13784
  Beta virt. eigenvalues --   -0.11840  -0.11158  -0.10775  -0.03302  -0.03247
  Beta virt. eigenvalues --   -0.02453   0.02397   0.04819   0.18296   0.19308

 Mulliken charges and spin densities:
               1          2
     1  C    0.216267   0.519737
     2  C    0.216267   0.519737
     3  H    0.283733  -0.019737
     4  H    0.283733  -0.019737
 Sum of Mulliken charges =   1.00000   1.00000

 Dipole moment (field-independent basis, Debye):
    X=              0.0000    Y=              0.0000    Z=             -0.0000  Tot=              0.0000
 Quadrupole moment (field-independent basis, Debye-Ang):
   XX=             -9.1766   YY=            -10.8413   ZZ=             -1.4875
   XY=              0.0000   XZ=             -0.0000   YZ=              0.0000

 Normal termination of Gaussian 16 at Tue Nov 19 13:28:20 2024.
