 Gaussian 16, Revision A.03,
 Gaussian 16:  ES64L-G16RevA.03 25-Dec-2016

 --------------------------------------------
 #p opt UM062X/6-311+G** nosymm int=superfine
 --------------------------------------------

 -------------------
 Title Card Required
 -------------------
 Symbolic Z-matrix:
 Charge =  0 Multiplicity = 1

 SCF Done:  E(UM062X) =  -76.8859168917     A.U. after   14 cycles
 SCF Done:  E(UM062X) =  -76.8868082038     A.U. after   14 cycles
 SCF Done:  E(UM062X) =  -76.8880985100     A.U. after   16 cycles
 SCF Done:  E(UM062X) =  -76.8884580383     A.U. after   19 cycles
 SCF Done:  E(UM062X) =  -76.8885906411     A.U. after   15 cycles
 SCF Done:  E(UM062X) =  -76.8886032469     A.U. after   12 cycles
 SCF Done:  E(UM062X) =  -76.8886033137     A.U. after   16 cycles
 SCF Done:  E(UM062X) =  -76.8886033191     A.U. after   10 cycles
 Optimization completed.
    -- Stationary point found.

                          Input orientation:
 ---------------------------------------------------------------------
 Center     Atomic      Atomic             Coordinates (Angstroms)
 Number     Number       Type             X           Y           Z
 ---------------------------------------------------------------------
      1          6           0       -1.707625    0.000000    0.000000
      2          6           0        1.707625    0.000000    0.000000
      3          1           0       -1.559035   -0.655804    0.892678
      4          1           0        1.558997    0.656128   -0.892433
 ---------------------------------------------------------------------

 Alpha  occ. eigenvalues --  -10.67585 -10.67583  -0.72992  -0.72146  -0.39092
 Alpha  occ. eigenvalues --   -0.38716  -0.24620
 Alpha virt. eigenvalues --   -0.11526  -0.10463  -0.09207   0.03355   0.04729
 Alpha virt. eigenvalues --    0.07252   0.07389   0.09396   0.09834   0.10950
 Alpha virt. eigenvalues --    0.14165   0.18010   0.19697   0.43548   0.45244

  Beta  occ. eigenvalues --  -10.67585 -10.67583  -0.72992  -0.72146  -0.39092
  Beta  occ. eigenvalues --   -0.38716  -0.24620
  Beta virt. eigenvalues --   -0.11526  -0.10463  -0.09207   0.03355   0.04729
  Beta virt. eigenvalues --    0.07252   0.07389   0.09396   0.09834   0.10950
  Beta virt. eigenvalues --    0.14165   0.18010   0.19697   0.43548   0.45244

 Mulliken charges and spin densities:
               1          2
     1  C   -0.145644   0.000004
     2  C   -0.145638  -0.000004
     3  H    0.145640  -0.000000
     4  H    0.145641   0.000000
 Sum of Mulliken charges =  -0.00000   0.00000

 Dipole moment (field-independent basis, Debye):
    X=             -0.0000    Y=              0.0005    Z=              0.0004  Tot=              0.0006
 Quadrupole moment (field-independent basis, Debye-Ang):
   XX=            -16.8942   YY=            -12.8947   ZZ=            -13.6935
   XY=              3.3654   XZ=             -4.5791   YZ=              1.2765

 Normal termination of Gaussian 16 at Tue Dec  3 23:30:10 2024.
