 Gaussian 16, Revision A.03,
 Gaussian 16:  ES64L-G16RevA.03 25-Dec-2016

 ----------------------------------------------------------------------
 #p opt UM062X/6-311+G** nosymm int=superfine SCF=(MaxCycle=200,NoVarAc
 c,noincfock) guess=read
 ----------------------------------------------------------------------

 -------------------
 Title Card Required
 -------------------
 Symbolic Z-matrix:
 Charge =  1 Multiplicity = 2

 SCF Done:  E(UM062X) =  -92.6392705646     A.U. after   55 cycles
 SCF Done:  E(UM062X) =  -92.6397466937     A.U. after   38 cycles
 SCF Done:  E(UM062X) =  -92.6397531501     A.U. after   49 cycles
 Optimization completed.
    -- Stationary point found.

                          Input orientation:
 ---------------------------------------------------------------------
 Center     Atomic      Atomic             Coordinates (Angstroms)
 Number     Number       Type             X           Y           Z
 ---------------------------------------------------------------------
      1          6           0       -1.576540    0.000000    0.000000
      2          7           0        1.576540    0.000000    0.000000
      3          1           0       -2.701116    0.000000    0.000000
 ---------------------------------------------------------------------

 Alpha  occ. eigenvalues --  -15.09886 -11.03144  -1.13624  -1.00080  -0.65509
 Alpha  occ. eigenvalues --   -0.65495  -0.62267
 Alpha virt. eigenvalues --   -0.47321  -0.37869  -0.34095  -0.16052  -0.09908
 Alpha virt. eigenvalues --   -0.09554  -0.08644  -0.04456  -0.00959  -0.00816
 Alpha virt. eigenvalues --   -0.00277   0.07742   0.22405   0.29829   0.30027

  Beta  occ. eigenvalues --  -15.06014 -11.05711  -1.09608  -0.91894  -0.79511
  Beta  occ. eigenvalues --   -0.68176
  Beta virt. eigenvalues --   -0.43684  -0.27646  -0.26732  -0.26694  -0.16010
  Beta virt. eigenvalues --   -0.11381  -0.09466  -0.09376  -0.06974  -0.00175
  Beta virt. eigenvalues --    0.00967   0.01048   0.05606   0.22612   0.29705

 Mulliken charges and spin densities:
               1          2
     1  C    0.419207  -1.669548
     2  N    0.214705   2.781832
     3  H    0.366088  -0.112283
 Sum of Mulliken charges =   1.00000   1.00000

 Dipole moment (field-independent basis, Debye):
    X=             -5.9751    Y=              0.0000    Z=             -0.0000  Tot=              5.9751
 Quadrupole moment (field-independent basis, Debye-Ang):
   XX=             10.1318   YY=             -9.5615   ZZ=            -10.4968
   XY=             -0.0000   XZ=             -0.0000   YZ=             -0.6518

 Normal termination of Gaussian 16 at Mon Apr 21 23:05:22 2025.
