 Gaussian 16, Revision A.03,
 Gaussian 16:  ES64L-G16RevA.03 25-Dec-2016

 --------------------------------------------
 #p opt UM062X/6-311+G** nosymm int=superfine
 --------------------------------------------

 -------------------
 Title Card Required
 -------------------
 Symbolic Z-matrix:
 Charge =  0 Multiplicity = 1

 SCF Done:  E(UM062X) =  -582.519872695     A.U. after    9 cycles
 SCF Done:  E(UM062X) =  -582.519942121     A.U. after    7 cycles
 SCF Done:  E(UM062X) =  -582.519948314     A.U. after    6 cycles
 Optimization completed.
    -- Stationary point found.

                          Input orientation:
 ---------------------------------------------------------------------
 Center     Atomic      Atomic             Coordinates (Angstroms)
 Number     Number       Type             X           Y           Z
 ---------------------------------------------------------------------
      1         14           0       -1.269819    0.000000    0.000000
      2         14           0        1.269819    0.000000    0.000000
      3          1           0        1.767037   -1.394096   -0.000020
      4          1           0       -1.767070   -0.696915    1.207390
      5          1           0        1.767150    0.697027   -1.207291
      6          1           0        1.767072    0.696965    1.207360
      7          1           0       -1.767039    1.394095   -0.000081
      8          1           0       -1.767151   -0.697079   -1.207261
 ---------------------------------------------------------------------

 Alpha  occ. eigenvalues --  -66.99508 -66.99508  -5.54566  -5.54564  -3.85715
 Alpha  occ. eigenvalues --   -3.85690  -3.85669  -3.85669  -3.85667  -3.85667
 Alpha  occ. eigenvalues --   -0.63185  -0.58260  -0.41853  -0.41853  -0.39945
 Alpha  occ. eigenvalues --   -0.39945  -0.32667
 Alpha virt. eigenvalues --    0.00689   0.01901   0.03178   0.03178   0.04384
 Alpha virt. eigenvalues --    0.05629   0.05629   0.05692   0.05692   0.06720
 Alpha virt. eigenvalues --    0.08989   0.08990   0.09529   0.15780   0.18017

  Beta  occ. eigenvalues --  -66.99508 -66.99508  -5.54566  -5.54564  -3.85715
  Beta  occ. eigenvalues --   -3.85690  -3.85669  -3.85669  -3.85667  -3.85667
  Beta  occ. eigenvalues --   -0.63185  -0.58260  -0.41853  -0.41853  -0.39945
  Beta  occ. eigenvalues --   -0.39945  -0.32667
  Beta virt. eigenvalues --    0.00689   0.01901   0.03178   0.03178   0.04384
  Beta virt. eigenvalues --    0.05629   0.05629   0.05692   0.05692   0.06720
  Beta virt. eigenvalues --    0.08989   0.08990   0.09529   0.15780   0.18017

 Mulliken charges and spin densities:
               1          2
     1  Si   0.300130   0.000000
     2  Si   0.300130  -0.000000
     3  H   -0.100045   0.000000
     4  H   -0.100043  -0.000000
     5  H   -0.100042   0.000000
     6  H   -0.100043   0.000000
     7  H   -0.100045  -0.000000
     8  H   -0.100042  -0.000000
 Sum of Mulliken charges =  -0.00000   0.00000

 Dipole moment (field-independent basis, Debye):
    X=              0.0000    Y=              0.0000    Z=             -0.0001  Tot=              0.0001
 Quadrupole moment (field-independent basis, Debye-Ang):
   XX=            -32.0278   YY=            -31.4162   ZZ=            -31.4161
   XY=              0.0004   XZ=             -0.0000   YZ=             -0.0000

 Normal termination of Gaussian 16 at Mon Apr 21 20:18:29 2025.
