 Gaussian 16, Revision A.03,
 Gaussian 16:  ES64L-G16RevA.03 25-Dec-2016

 --------------------------------------------
 #p opt UM062X/6-311+G** nosymm int=superfine
 --------------------------------------------

 -------------------
 Title Card Required
 -------------------
 Symbolic Z-matrix:
 Charge =  0 Multiplicity = 1

 SCF Done:  E(UM062X) =  -579.884603323     A.U. after   10 cycles
 SCF Done:  E(UM062X) =  -579.887451078     A.U. after   10 cycles
 SCF Done:  E(UM062X) =  -579.887456380     A.U. after    7 cycles
 Optimization completed.
    -- Stationary point found.

                          Input orientation:
 ---------------------------------------------------------------------
 Center     Atomic      Atomic             Coordinates (Angstroms)
 Number     Number       Type             X           Y           Z
 ---------------------------------------------------------------------
      1         14           0       -2.053705    0.000000    0.000000
      2         14           0        2.053705    0.000000    0.000000
      3          1           0       -3.579425   -0.000027    0.000000
      4          1           0        3.579425    0.000041   -0.000000
 ---------------------------------------------------------------------

 Alpha  occ. eigenvalues --  -67.04537 -67.04537  -5.58958  -5.58956  -3.90065
 Alpha  occ. eigenvalues --   -3.90065  -3.89615  -3.89615  -3.89474  -3.89474
 Alpha  occ. eigenvalues --   -0.55022  -0.54635  -0.33952  -0.31197  -0.18090
 Alpha virt. eigenvalues --   -0.10508  -0.09329  -0.08133   0.02286   0.02927
 Alpha virt. eigenvalues --    0.04542   0.05719   0.05931   0.05957   0.06826
 Alpha virt. eigenvalues --    0.07073   0.08775   0.17127   0.29346   0.29515

  Beta  occ. eigenvalues --  -67.04537 -67.04537  -5.58958  -5.58956  -3.90065
  Beta  occ. eigenvalues --   -3.90065  -3.89615  -3.89615  -3.89474  -3.89474
  Beta  occ. eigenvalues --   -0.55022  -0.54635  -0.33952  -0.31197  -0.18090
  Beta virt. eigenvalues --   -0.10508  -0.09329  -0.08133   0.02286   0.02927
  Beta virt. eigenvalues --    0.04542   0.05719   0.05931   0.05957   0.06826
  Beta virt. eigenvalues --    0.07073   0.08775   0.17127   0.29346   0.29515

 Mulliken charges and spin densities:
               1          2
     1  Si   0.147429  -0.000000
     2  Si   0.147428   0.000000
     3  H   -0.147428   0.000000
     4  H   -0.147428  -0.000000
 Sum of Mulliken charges =  -0.00000  -0.00000

 Dipole moment (field-independent basis, Debye):
    X=             -0.0000    Y=              0.0000    Z=             -0.0000  Tot=              0.0000
 Quadrupole moment (field-independent basis, Debye-Ang):
   XX=            -30.5990   YY=            -24.2746   ZZ=            -35.6747
   XY=             -0.0002   XZ=              0.0000   YZ=             -0.0278

 Normal termination of Gaussian 16 at Mon Apr 21 21:25:40 2025.
