 Gaussian 16, Revision A.03,
 Gaussian 16:  ES64L-G16RevA.03 25-Dec-2016

 ----------------------------------------------------------------------
 #p opt UM062X/6-311+G** nosymm int=superfine SCF=(MaxCycle=200,NoVarAc
 c,noincfock) guess=read
 ----------------------------------------------------------------------

 -------------------
 Title Card Required
 -------------------
 Symbolic Z-matrix:
 Charge =  0 Multiplicity = 1

 SCF Done:  E(UM062X) =  -151.306899560     A.U. after   30 cycles
 SCF Done:  E(UM062X) =  -151.307459158     A.U. after   16 cycles
 SCF Done:  E(UM062X) =  -151.308294618     A.U. after   22 cycles
 SCF Done:  E(UM062X) =  -151.309010461     A.U. after   19 cycles
 SCF Done:  E(UM062X) =  -151.309420994     A.U. after   19 cycles
 SCF Done:  E(UM062X) =  -151.309596197     A.U. after   18 cycles
 SCF Done:  E(UM062X) =  -151.309620333     A.U. after   17 cycles
 SCF Done:  E(UM062X) =  -151.309629823     A.U. after   15 cycles
 SCF Done:  E(UM062X) =  -151.309630977     A.U. after   19 cycles
 SCF Done:  E(UM062X) =  -151.309630999     A.U. after   16 cycles
 Optimization completed.
    -- Stationary point found.

                          Input orientation:
 ---------------------------------------------------------------------
 Center     Atomic      Atomic             Coordinates (Angstroms)
 Number     Number       Type             X           Y           Z
 ---------------------------------------------------------------------
      1          8           0       -1.861938    0.000000    0.000000
      2          8           0        1.861938    0.000000    0.000000
      3          1           0       -1.666705   -0.759199   -0.577932
      4          1           0        1.666825    0.758747    0.578566
 ---------------------------------------------------------------------

 Alpha  occ. eigenvalues --  -19.72435 -19.72434  -1.13001  -1.12803  -0.56773
 Alpha  occ. eigenvalues --   -0.56663  -0.44206  -0.44065  -0.36231
 Alpha virt. eigenvalues --   -0.27162   0.05063   0.07510   0.15045   0.15130
 Alpha virt. eigenvalues --    0.17062   0.18271   0.19759   0.20217   0.20527
 Alpha virt. eigenvalues --    0.30829   0.49027   0.51261   0.99674   1.00962

  Beta  occ. eigenvalues --  -19.72435 -19.72434  -1.13001  -1.12803  -0.56773
  Beta  occ. eigenvalues --   -0.56663  -0.44206  -0.44065  -0.36231
  Beta virt. eigenvalues --   -0.27162   0.05063   0.07510   0.15045   0.15130
  Beta virt. eigenvalues --    0.17062   0.18271   0.19759   0.20217   0.20527
  Beta virt. eigenvalues --    0.30829   0.49027   0.51261   0.99674   1.00962

 Mulliken charges and spin densities:
               1          2
     1  O   -0.267534  -0.000000
     2  O   -0.267542  -0.000000
     3  H    0.267539   0.000000
     4  H    0.267537   0.000000
 Sum of Mulliken charges =  -0.00000   0.00000

 Dipole moment (field-independent basis, Debye):
    X=              0.0002    Y=             -0.0009    Z=              0.0012  Tot=              0.0015
 Quadrupole moment (field-independent basis, Debye-Ang):
   XX=            -13.4751   YY=            -10.5800   ZZ=            -11.9196
   XY=              5.1551   XZ=              3.9275   YZ=              2.4328

 Normal termination of Gaussian 16 at Tue Apr 22 00:21:00 2025.
