 Gaussian 16, Revision A.03,
 Gaussian 16:  ES64L-G16RevA.03 25-Dec-2016

 --------------------------------------------
 #p opt UM062X/6-311+G** nosymm int=superfine
 --------------------------------------------

 -------------------
 Title Card Required
 -------------------
 Symbolic Z-matrix:
 Charge =  0 Multiplicity = 1

 SCF Done:  E(UM062X) =  -438.563473793     A.U. after   11 cycles
 SCF Done:  E(UM062X) =  -438.573582859     A.U. after   10 cycles
 SCF Done:  E(UM062X) =  -438.576574837     A.U. after   11 cycles
 SCF Done:  E(UM062X) =  -438.576595440     A.U. after    9 cycles
 SCF Done:  E(UM062X) =  -438.576605353     A.U. after    9 cycles
 SCF Done:  E(UM062X) =  -438.576607340     A.U. after    8 cycles
 Optimization completed.
    -- Stationary point found.

                          Input orientation:
 ---------------------------------------------------------------------
 Center     Atomic      Atomic             Coordinates (Angstroms)
 Number     Number       Type             X           Y           Z
 ---------------------------------------------------------------------
      1          6           0       -1.410220    0.000000    0.000000
      2         16           0        1.410220    0.000000    0.000000
      3          1           0        1.386446   -1.343832   -0.000570
      4          1           0       -1.514797    1.075891    0.002767
      5          1           0       -1.542608   -0.528763   -0.933432
      6          1           0       -1.542687   -0.533530    0.930707
 ---------------------------------------------------------------------

 Alpha  occ. eigenvalues --  -89.89008 -10.62579  -8.25238  -6.17304  -6.17205
 Alpha  occ. eigenvalues --   -6.16674  -0.81503  -0.76415  -0.52933  -0.52829
 Alpha  occ. eigenvalues --   -0.43170  -0.31376  -0.29072
 Alpha virt. eigenvalues --   -0.10028   0.01797   0.04266   0.05065   0.05558
 Alpha virt. eigenvalues --    0.07615   0.07835   0.08519   0.11215   0.13533
 Alpha virt. eigenvalues --    0.17010   0.17710   0.22915   0.32947   0.36286

  Beta  occ. eigenvalues --  -89.89008 -10.62579  -8.25238  -6.17304  -6.17205
  Beta  occ. eigenvalues --   -6.16674  -0.81503  -0.76415  -0.52933  -0.52829
  Beta  occ. eigenvalues --   -0.43170  -0.31376  -0.29072
  Beta virt. eigenvalues --   -0.10028   0.01797   0.04266   0.05065   0.05558
  Beta virt. eigenvalues --    0.07615   0.07835   0.08519   0.11215   0.13533
  Beta virt. eigenvalues --    0.17010   0.17710   0.22915   0.32947   0.36286

 Mulliken charges and spin densities:
               1          2
     1  C   -0.464362   0.000000
     2  S   -0.212006  -0.000000
     3  H    0.058691   0.000000
     4  H    0.206465  -0.000000
     5  H    0.205634  -0.000000
     6  H    0.205578  -0.000000
 Sum of Mulliken charges =  -0.00000   0.00000

 Dipole moment (field-independent basis, Debye):
    X=             -3.1210    Y=             -0.9355    Z=             -0.0004  Tot=              3.2582
 Quadrupole moment (field-independent basis, Debye-Ang):
   XX=            -20.8469   YY=            -19.4117   ZZ=            -23.4322
   XY=             -1.5548   XZ=             -0.0007   YZ=              0.0017

 Normal termination of Gaussian 16 at Mon Apr 21 19:36:08 2025.
