 Gaussian 16, Revision A.03,
 Gaussian 16:  ES64L-G16RevA.03 25-Dec-2016

 --------------------------------------------
 #p opt UM062X/6-311+G** nosymm int=superfine
 --------------------------------------------

 -------------------
 Title Card Required
 -------------------
 Symbolic Z-matrix:
 Charge =  0 Multiplicity = 1

 SCF Done:  E(UM062X) =  -51.7726298700     A.U. after   10 cycles
 SCF Done:  E(UM062X) =  -51.7781921502     A.U. after    9 cycles
 SCF Done:  E(UM062X) =  -51.7817191284     A.U. after   11 cycles
 SCF Done:  E(UM062X) =  -51.7817228958     A.U. after   11 cycles
 SCF Done:  E(UM062X) =  -51.7817227519     A.U. after    8 cycles
 SCF Done:  E(UM062X) =  -51.7817229024     A.U. after    9 cycles
 Optimization completed.
    -- Stationary point found.

                          Input orientation:
 ---------------------------------------------------------------------
 Center     Atomic      Atomic             Coordinates (Angstroms)
 Number     Number       Type             X           Y           Z
 ---------------------------------------------------------------------
      1          5           0       -2.320607    0.000000    0.000000
      2          5           0        2.320607    0.000000    0.000000
      3          1           0       -2.770270   -1.090439   -0.000001
      4          1           0        2.770269    1.090424   -0.005872
      5          1           0       -2.770272    1.090438   -0.000004
      6          1           0        2.770272   -1.090423    0.005866
 ---------------------------------------------------------------------

 Alpha  occ. eigenvalues --   -7.11683  -7.11682  -0.58105  -0.57944  -0.45549
 Alpha  occ. eigenvalues --   -0.45519  -0.18929
 Alpha virt. eigenvalues --   -0.09082  -0.05169  -0.04539   0.02214   0.03008
 Alpha virt. eigenvalues --    0.03829   0.05288   0.06085   0.07111   0.08380
 Alpha virt. eigenvalues --    0.09931   0.14981   0.15593   0.17323   0.22814

  Beta  occ. eigenvalues --   -7.11683  -7.11682  -0.58105  -0.57944  -0.45549
  Beta  occ. eigenvalues --   -0.45519  -0.18929
  Beta virt. eigenvalues --   -0.09082  -0.05169  -0.04539   0.02214   0.03008
  Beta virt. eigenvalues --    0.03829   0.05288   0.06085   0.07111   0.08380
  Beta virt. eigenvalues --    0.09931   0.14981   0.15593   0.17323   0.22814

 Mulliken charges and spin densities:
               1          2
     1  B   -0.065713   0.000000
     2  B   -0.065713  -0.000000
     3  H    0.032856   0.000000
     4  H    0.032856  -0.000000
     5  H    0.032856   0.000000
     6  H    0.032856  -0.000000
 Sum of Mulliken charges =  -0.00000   0.00000

 Dipole moment (field-independent basis, Debye):
    X=              0.0000    Y=             -0.0000    Z=             -0.0000  Tot=              0.0000
 Quadrupole moment (field-independent basis, Debye-Ang):
   XX=             -9.6386   YY=            -16.9881   ZZ=            -14.6947
   XY=             -0.0000   XZ=              0.0000   YZ=              0.0062

 Normal termination of Gaussian 16 at Mon Apr 21 17:19:38 2025.
