 Gaussian 16, Revision A.03,
 Gaussian 16:  ES64L-G16RevA.03 25-Dec-2016

 ---------------------------------------------------------
 #p opt UM062X/6-311+G** nosymm int=superfine SCF=NoVarAcc
 ---------------------------------------------------------

 -------------------
 Title Card Required
 -------------------
 Symbolic Z-matrix:
 Charge =  1 Multiplicity = 2

 SCF Done:  E(UM062X) =  -76.5848772386     A.U. after   28 cycles
 SCF Done:  E(UM062X) =  -76.5852333672     A.U. after   65 cycles
 Optimization completed.
    -- Stationary point found.

                          Input orientation:
 ---------------------------------------------------------------------
 Center     Atomic      Atomic             Coordinates (Angstroms)
 Number     Number       Type             X           Y           Z
 ---------------------------------------------------------------------
      1          6           0       -8.382160    0.000000    0.000000
      2          6           0        8.382160    0.000000    0.000000
      3          1           0       -9.500220    0.000000   -0.000000
      4          1           0        9.500219    0.000000   -0.000000
 ---------------------------------------------------------------------

 Alpha  occ. eigenvalues --  -10.90662 -10.90662  -0.94463  -0.94462  -0.59468
 Alpha  occ. eigenvalues --   -0.59468  -0.41445
 Alpha virt. eigenvalues --   -0.39749  -0.29394  -0.29394  -0.08454  -0.08453
 Alpha virt. eigenvalues --   -0.03104  -0.03104  -0.02936  -0.02936  -0.02809
 Alpha virt. eigenvalues --   -0.02809   0.02978   0.02978   0.31237   0.31237

  Beta  occ. eigenvalues --  -10.90248 -10.90248  -0.92102  -0.92102  -0.58075
  Beta  occ. eigenvalues --   -0.58075
  Beta virt. eigenvalues --   -0.27512  -0.27512  -0.25880  -0.25880  -0.08650
  Beta virt. eigenvalues --   -0.08650  -0.02826  -0.02826  -0.02307  -0.02307
  Beta virt. eigenvalues --   -0.01380  -0.01380   0.04782   0.04782   0.30580

 Mulliken charges and spin densities:
               1          2
     1  C    0.299676   0.515422
     2  C    0.299676   0.515422
     3  H    0.200324  -0.015422
     4  H    0.200324  -0.015422
 Sum of Mulliken charges =   1.00000   1.00000

 Dipole moment (field-independent basis, Debye):
    X=             -0.0000    Y=              0.0000    Z=              0.0000  Tot=              0.0000
 Quadrupole moment (field-independent basis, Debye-Ang):
   XX=            391.6609   YY=             -9.4842   ZZ=            -11.4279
   XY=             -0.0000   XZ=              0.0000   YZ=              0.1920

 Normal termination of Gaussian 16 at Tue Dec  3 17:45:33 2024.
