 Gaussian 16, Revision A.03,
 Gaussian 16:  ES64L-G16RevA.03 25-Dec-2016

 --------------------------------------------
 #p opt UM062X/6-311+G** nosymm int=superfine
 --------------------------------------------

 -------------------
 Title Card Required
 -------------------
 Symbolic Z-matrix:
 Charge =  0 Multiplicity = 1

 SCF Done:  E(UM062X) =  -76.9916301055     A.U. after   10 cycles
 SCF Done:  E(UM062X) =  -77.0810018919     A.U. after   10 cycles
 SCF Done:  E(UM062X) =  -77.1009686658     A.U. after    9 cycles
 SCF Done:  E(UM062X) =  -77.1015708557     A.U. after    8 cycles
 Optimization completed.
    -- Stationary point found.

                          Input orientation:
 ---------------------------------------------------------------------
 Center     Atomic      Atomic             Coordinates (Angstroms)
 Number     Number       Type             X           Y           Z
 ---------------------------------------------------------------------
      1          6           0       -0.472827    0.000000    0.000000
      2          6           0        0.472827    0.000000    0.000000
      3          1           0       -1.531907    0.000000   -0.000000
      4          1           0        1.531904    0.000000    0.000000
 ---------------------------------------------------------------------

 Alpha  occ. eigenvalues --  -10.48522 -10.46370  -0.89514  -0.60864  -0.56289
 Alpha  occ. eigenvalues --   -0.41360  -0.41360
 Alpha virt. eigenvalues --    0.02861   0.03455   0.07097   0.07097   0.07560
 Alpha virt. eigenvalues --    0.07560   0.09543   0.16884   0.21478   0.21478
 Alpha virt. eigenvalues --    0.22303   0.25073   0.43999   0.46715   0.53476

  Beta  occ. eigenvalues --  -10.48522 -10.46370  -0.89514  -0.60864  -0.56289
  Beta  occ. eigenvalues --   -0.41360  -0.41360
  Beta virt. eigenvalues --    0.02861   0.03455   0.07097   0.07097   0.07560
  Beta virt. eigenvalues --    0.07560   0.09543   0.16884   0.21478   0.21478
  Beta virt. eigenvalues --    0.22303   0.25073   0.43999   0.46715   0.53476

 Mulliken charges and spin densities:
               1          2
     1  C   -0.122050  -0.000000
     2  C   -0.122047   0.000000
     3  H    0.122049  -0.000000
     4  H    0.122048   0.000000
 Sum of Mulliken charges =  -0.00000  -0.00000

 Dipole moment (field-independent basis, Debye):
    X=             -0.0000    Y=              0.0000    Z=              0.0000  Tot=              0.0000
 Quadrupole moment (field-independent basis, Debye-Ang):
   XX=             -7.6303   YY=            -12.4543   ZZ=            -12.4543
   XY=              0.0000   XZ=              0.0000   YZ=              0.0000

 Normal termination of Gaussian 16 at Tue Dec  3 19:58:03 2024.
