 Gaussian 16, Revision A.03,
 Gaussian 16:  ES64L-G16RevA.03 25-Dec-2016

 --------------------------------------------
 #p opt UM062X/6-311+G** nosymm int=superfine
 --------------------------------------------

 -------------------
 Title Card Required
 -------------------
 Symbolic Z-matrix:
 Charge = -1 Multiplicity = 2

 SCF Done:  E(UM062X) =  -53.2083649447     A.U. after   11 cycles
 SCF Done:  E(UM062X) =  -53.2115773489     A.U. after   10 cycles
 SCF Done:  E(UM062X) =  -53.2122766513     A.U. after   10 cycles
 SCF Done:  E(UM062X) =  -53.2122781805     A.U. after    8 cycles
 Optimization completed.
    -- Stationary point found.

                          Input orientation:
 ---------------------------------------------------------------------
 Center     Atomic      Atomic             Coordinates (Angstroms)
 Number     Number       Type             X           Y           Z
 ---------------------------------------------------------------------
      1          5           0       -1.815672    0.000000    0.000000
      2          5           0        1.815672    0.000000    0.000000
      3          1           0        1.897240   -1.196443   -0.000014
      4          1           0       -1.896910   -0.598233    1.036171
      5          1           0        1.897059    0.598251   -1.036149
      6          1           0        1.896855    0.598219    1.036182
      7          1           0       -1.897247    1.196443   -0.000000
      8          1           0       -1.896997   -0.598238   -1.036161
 ---------------------------------------------------------------------

 Alpha  occ. eigenvalues --   -6.83857  -6.83856  -0.39534  -0.38613  -0.21254
 Alpha  occ. eigenvalues --   -0.21253  -0.20773  -0.20773   0.00692
 Alpha virt. eigenvalues --    0.12992   0.17059   0.17740   0.17740   0.18579
 Alpha virt. eigenvalues --    0.18579   0.20122   0.22749   0.23469   0.32926
 Alpha virt. eigenvalues --    0.32926   0.35222   0.35223   0.37964   0.39250

  Beta  occ. eigenvalues --   -6.83817  -6.83817  -0.37652  -0.37068  -0.21044
  Beta  occ. eigenvalues --   -0.21044  -0.20608  -0.20608
  Beta virt. eigenvalues --    0.12647   0.13973   0.14831   0.15802   0.15802
  Beta virt. eigenvalues --    0.18144   0.18144   0.22322   0.22927   0.26014
  Beta virt. eigenvalues --    0.31994   0.31994   0.34695   0.34696   0.37545

 Mulliken charges and spin densities:
               1          2
     1  B   -0.325660   0.576430
     2  B   -0.325660   0.576430
     3  H   -0.058132  -0.025488
     4  H   -0.058102  -0.025471
     5  H   -0.058108  -0.025471
     6  H   -0.058099  -0.025471
     7  H   -0.058133  -0.025488
     8  H   -0.058105  -0.025471
 Sum of Mulliken charges =  -1.00000   1.00000

 Dipole moment (field-independent basis, Debye):
    X=              0.0000    Y=             -0.0000    Z=              0.0001  Tot=              0.0001
 Quadrupole moment (field-independent basis, Debye-Ang):
   XX=            -40.3368   YY=            -24.2397   ZZ=            -24.2394
   XY=              0.0001   XZ=              0.0000   YZ=              0.0000

 Normal termination of Gaussian 16 at Mon Apr 21 16:54:41 2025.
