 Gaussian 16, Revision A.03,
 Gaussian 16:  ES64L-G16RevA.03 25-Dec-2016

 --------------------------------------------
 #p opt UM062X/6-311+G** nosymm int=superfine
 --------------------------------------------

 -------------------
 Title Card Required
 -------------------
 Symbolic Z-matrix:
 Charge =  0 Multiplicity = 1

 SCF Done:  E(UM062X) =  -438.466609774     A.U. after   15 cycles
 SCF Done:  E(UM062X) =  -438.480379334     A.U. after   12 cycles
 SCF Done:  E(UM062X) =  -438.487811844     A.U. after   13 cycles
 SCF Done:  E(UM062X) =  -438.487883560     A.U. after   10 cycles
 SCF Done:  E(UM062X) =  -438.487894935     A.U. after   11 cycles
 SCF Done:  E(UM062X) =  -438.487941635     A.U. after   10 cycles
 SCF Done:  E(UM062X) =  -438.487945143     A.U. after   10 cycles
 SCF Done:  E(UM062X) =  -438.487945596     A.U. after    9 cycles
 Optimization completed.
    -- Stationary point found.

                          Input orientation:
 ---------------------------------------------------------------------
 Center     Atomic      Atomic             Coordinates (Angstroms)
 Number     Number       Type             X           Y           Z
 ---------------------------------------------------------------------
      1          6           0       -2.185220    0.000000    0.000000
      2         16           0        2.185220    0.000000    0.000000
      3          1           0        2.152311   -1.344221   -0.000956
      4          1           0       -2.143922    1.080304    0.002673
      5          1           0       -2.223304   -0.535897   -0.938144
      6          1           0       -2.223535   -0.540530    0.935473
 ---------------------------------------------------------------------

 Alpha  occ. eigenvalues --  -89.87353 -10.65171  -8.23680  -6.15718  -6.15663
 Alpha  occ. eigenvalues --   -6.15110  -0.83663  -0.75290  -0.55729  -0.55654
 Alpha  occ. eigenvalues --   -0.41839  -0.27778  -0.25793
 Alpha virt. eigenvalues --   -0.17320   0.00819   0.03598   0.03885   0.05489
 Alpha virt. eigenvalues --    0.07461   0.08332   0.08414   0.10662   0.13288
 Alpha virt. eigenvalues --    0.15318   0.15383   0.19986   0.34936   0.36715

  Beta  occ. eigenvalues --  -89.87353 -10.65171  -8.23680  -6.15718  -6.15663
  Beta  occ. eigenvalues --   -6.15110  -0.83663  -0.75290  -0.55729  -0.55654
  Beta  occ. eigenvalues --   -0.41839  -0.27778  -0.25793
  Beta virt. eigenvalues --   -0.17320   0.00819   0.03598   0.03885   0.05489
  Beta virt. eigenvalues --    0.07461   0.08332   0.08414   0.10662   0.13288
  Beta virt. eigenvalues --    0.15318   0.15383   0.19986   0.34936   0.36715

 Mulliken charges and spin densities:
               1          2
     1  C   -0.364402  -0.000003
     2  S   -0.298045   0.000003
     3  H    0.050179  -0.000000
     4  H    0.206187   0.000000
     5  H    0.203047   0.000000
     6  H    0.203034   0.000000
 Sum of Mulliken charges =  -0.00000   0.00000

 Dipole moment (field-independent basis, Debye):
    X=             -5.5719    Y=             -0.9564    Z=             -0.0007  Tot=              5.6534
 Quadrupole moment (field-independent basis, Debye-Ang):
   XX=            -21.0733   YY=            -19.6259   ZZ=            -23.6746
   XY=             -2.1068   XZ=             -0.0015   YZ=              0.0029

 Normal termination of Gaussian 16 at Mon Apr 21 19:38:41 2025.
