 Gaussian 16, Revision A.03,
 Gaussian 16:  ES64L-G16RevA.03 25-Dec-2016

 --------------------------------------------
 #p opt UM062X/6-311+G** nosymm int=superfine
 --------------------------------------------

 -------------------
 Title Card Required
 -------------------
 Symbolic Z-matrix:
 Charge =  1 Multiplicity = 2

 SCF Done:  E(UM062X) =  -582.164575352     A.U. after   10 cycles
 SCF Done:  E(UM062X) =  -582.164788723     A.U. after    8 cycles
 SCF Done:  E(UM062X) =  -582.164803619     A.U. after    8 cycles
 Optimization completed.
    -- Stationary point found.

                          Input orientation:
 ---------------------------------------------------------------------
 Center     Atomic      Atomic             Coordinates (Angstroms)
 Number     Number       Type             X           Y           Z
 ---------------------------------------------------------------------
      1         14           0       -1.676292    0.000000    0.000000
      2         14           0        1.676292    0.000000    0.000000
      3          1           0        1.840596   -1.455812    0.000008
      4          1           0       -1.840342   -0.727803    1.260852
      5          1           0        1.840833    0.727939   -1.260708
      6          1           0        1.840191    0.727895    1.260819
      7          1           0       -1.840621    1.455809   -0.000098
      8          1           0       -1.840657   -0.728037   -1.260675
 ---------------------------------------------------------------------

 Alpha  occ. eigenvalues --  -67.23676 -67.23676  -5.78518  -5.78518  -4.10207
 Alpha  occ. eigenvalues --   -4.10206  -4.09395  -4.09395  -4.09395  -4.09395
 Alpha  occ. eigenvalues --   -0.83433  -0.81328  -0.63040  -0.63040  -0.62238
 Alpha  occ. eigenvalues --   -0.62238  -0.47547
 Alpha virt. eigenvalues --   -0.25942  -0.14605  -0.11910  -0.11307  -0.11307
 Alpha virt. eigenvalues --   -0.10153  -0.10152  -0.09861  -0.08497  -0.08497
 Alpha virt. eigenvalues --   -0.07719  -0.06448  -0.06447  -0.03806   0.00801

  Beta  occ. eigenvalues --  -67.23416 -67.23416  -5.78447  -5.78446  -4.09571
  Beta  occ. eigenvalues --   -4.09571  -4.09308  -4.09308  -4.09308  -4.09308
  Beta  occ. eigenvalues --   -0.81090  -0.79862  -0.62717  -0.62717  -0.62026
  Beta  occ. eigenvalues --   -0.62026
  Beta virt. eigenvalues --   -0.29827  -0.20786  -0.14585  -0.11719  -0.11719
  Beta virt. eigenvalues --   -0.10931  -0.10350  -0.10349  -0.09662  -0.07873
  Beta virt. eigenvalues --   -0.07873  -0.06230  -0.06227  -0.06227  -0.03471

 Mulliken charges and spin densities:
               1          2
     1  Si   0.500168   0.552114
     2  Si   0.500168   0.552114
     3  H   -0.000052  -0.017373
     4  H   -0.000062  -0.017369
     5  H   -0.000049  -0.017376
     6  H   -0.000067  -0.017365
     7  H   -0.000051  -0.017374
     8  H   -0.000055  -0.017372
 Sum of Mulliken charges =   1.00000   1.00000

 Dipole moment (field-independent basis, Debye):
    X=              0.0000    Y=              0.0000    Z=             -0.0000  Tot=              0.0000
 Quadrupole moment (field-independent basis, Debye-Ang):
   XX=             -7.5708   YY=            -25.9125   ZZ=            -25.9126
   XY=             -0.0001   XZ=              0.0000   YZ=              0.0000

 Normal termination of Gaussian 16 at Mon Apr 21 20:14:22 2025.
