 Gaussian 16, Revision A.03,
 Gaussian 16:  ES64L-G16RevA.03 25-Dec-2016

 ---------------------------------------
 #p UM062X/6-311+G** force int=superfine
 ---------------------------------------

 -------------------
 Title Card Required
 -------------------
 Symbolic Z-matrix:
 Charge =  0 Multiplicity = 1

                         Standard orientation:
 ---------------------------------------------------------------------
 Center     Atomic      Atomic             Coordinates (Angstroms)
 Number     Number       Type             X           Y           Z
 ---------------------------------------------------------------------
      1          6           0        0.610869    0.000003   -0.000004
      2          6           0       -0.610869   -0.000003    0.000004
      3          1           0       -1.078827   -0.913102    0.400042
      4          1           0        1.078840   -0.110098    0.990786
      5          1           0       -1.078841    0.110100   -0.990785
      6          1           0       -1.078839    0.803003    0.590737
      7          1           0        1.078827    0.913103   -0.400041
      8          1           0        1.078839   -0.803004   -0.590735
 ---------------------------------------------------------------------

 SCF Done:  E(UM062X) =  -79.7156312787     A.U. after    8 cycles

 The electronic state is 1-A.
 Alpha  occ. eigenvalues --  -10.50258 -10.50037  -0.92380  -0.68227  -0.53563
 Alpha  occ. eigenvalues --   -0.53563  -0.49686  -0.36273  -0.36273
 Alpha virt. eigenvalues --    0.02093   0.04201   0.04965   0.04965   0.08674
 Alpha virt. eigenvalues --    0.08940   0.08940   0.14222   0.19499   0.19499
 Alpha virt. eigenvalues --    0.19624   0.19624   0.24048   0.27938   0.37664

  Beta  occ. eigenvalues --  -10.50258 -10.50037  -0.92380  -0.68227  -0.53563
  Beta  occ. eigenvalues --   -0.53563  -0.49686  -0.36273  -0.36273
  Beta virt. eigenvalues --    0.02093   0.04201   0.04965   0.04965   0.08674
  Beta virt. eigenvalues --    0.08940   0.08940   0.14222   0.19499   0.19499
  Beta virt. eigenvalues --    0.19624   0.19624   0.24048   0.27938   0.37664

 Mulliken charges and spin densities:
               1          2
     1  C   -0.436176  -0.000000
     2  C   -0.436176   0.000000
     3  H    0.145391   0.000000
     4  H    0.145393  -0.000000
     5  H    0.145393   0.000000
     6  H    0.145392   0.000000
     7  H    0.145391  -0.000000
     8  H    0.145392  -0.000000
 Sum of Mulliken charges =  -0.00000   0.00000

 Dipole moment (field-independent basis, Debye):
    X=              0.0000    Y=              0.0000    Z=              0.0000  Tot=              0.0000
 Quadrupole moment (field-independent basis, Debye-Ang):
   XX=            -15.6392   YY=            -14.9521   ZZ=            -14.9523
   XY=             -0.0000   XZ=              0.0000   YZ=             -0.0000

 Normal termination of Gaussian 16 at Tue Nov 19 12:39:01 2024.
