 Gaussian 16, Revision A.03,
 Gaussian 16:  ES64L-G16RevA.03 25-Dec-2016

 --------------------------------
 #p UM062X/6-311+G** Pop=NBO Read
 --------------------------------

 ------------
 NBO Analysis
 ------------
 Symbolic Z-matrix:
 Charge = -1 Multiplicity = 2

                         Standard orientation:
 ---------------------------------------------------------------------
 Center     Atomic      Atomic             Coordinates (Angstroms)
 Number     Number       Type             X           Y           Z
 ---------------------------------------------------------------------
      1          5           0       -0.000000   -0.000000    0.741404
      2          5           0        0.000000    0.000000   -0.741404
      3          1           0        0.000000   -0.000000    1.925183
      4          1           0       -0.000000    0.000000   -1.925183
 ---------------------------------------------------------------------

 SCF Done:  E(UM062X) =  -50.7738007187     A.U. after   11 cycles

 Unable to determine electronic state:  an orbital has unidentified symmetry.
 Alpha  occ. eigenvalues --   -6.81127  -6.80968  -0.36528  -0.28809  -0.20075
 Alpha  occ. eigenvalues --   -0.03380  -0.01680
 Alpha virt. eigenvalues --    0.15281   0.17454   0.19124   0.20132   0.21512
 Alpha virt. eigenvalues --    0.22573   0.22889   0.27971   0.31898   0.32677
 Alpha virt. eigenvalues --    0.38644   0.48118   0.73780   0.73874   0.75364

  Beta  occ. eigenvalues --   -6.81070  -6.80915  -0.33650  -0.27937  -0.19573
  Beta  occ. eigenvalues --    0.00477
  Beta virt. eigenvalues --    0.11138   0.15372   0.16337   0.17256   0.19507
  Beta virt. eigenvalues --    0.20113   0.21849   0.22636   0.25027   0.34512
  Beta virt. eigenvalues --    0.35750   0.40265   0.48907   0.73490   0.74483

 Mulliken charges and spin densities:
               1          2
     1  B   -0.410770   0.527804
     2  B   -0.410770   0.527804
     3  H   -0.089230  -0.027804
     4  H   -0.089230  -0.027804
 Sum of Mulliken charges =  -1.00000   1.00000

 Dipole moment (field-independent basis, Debye):
    X=             -0.0000    Y=             -0.0000    Z=              0.0000  Tot=              0.0000
 Quadrupole moment (field-independent basis, Debye-Ang):
   XX=            -20.6222   YY=            -27.1980   ZZ=            -22.8649
   XY=              0.0000   XZ=             -0.0000   YZ=             -0.0000

 Summary of Natural Population Analysis:

                                       Natural Population
                Natural  -----------------------------------------------
    Atom  No    Charge         Core      Valence    Rydberg      Total
 -----------------------------------------------------------------------
      B    1    0.06221      0.99941     1.42820    0.01018     2.43779
      B    2    0.06221      0.99941     1.42820    0.01018     2.43779
      H    3   -0.06221      0.00000     0.56094    0.00126     0.56221
      H    4   -0.06221      0.00000     0.56094    0.00126     0.56221
 =======================================================================
   * Total *   -0.00000      1.99882     3.97829    0.02289     6.00000

 Normal termination of Gaussian 16 at Wed Apr 16 00:07:26 2025.
