 Gaussian 16, Revision A.03,
 Gaussian 16:  ES64L-G16RevA.03 25-Dec-2016

 --------------------------------------------
 #p opt UM062X/6-311+G** nosymm int=superfine
 --------------------------------------------

 -------------------
 Title Card Required
 -------------------
 Symbolic Z-matrix:
 Charge =  0 Multiplicity = 1

 SCF Done:  E(UM062X) =  -51.7996035561     A.U. after   10 cycles
 SCF Done:  E(UM062X) =  -51.8048468416     A.U. after    9 cycles
 SCF Done:  E(UM062X) =  -51.8078812024     A.U. after   11 cycles
 SCF Done:  E(UM062X) =  -51.8078839549     A.U. after    9 cycles
 SCF Done:  E(UM062X) =  -51.8078784915     A.U. after    9 cycles
 SCF Done:  E(UM062X) =  -51.8078829716     A.U. after    9 cycles
 SCF Done:  E(UM062X) =  -51.8078838972     A.U. after   10 cycles
 Optimization completed.
    -- Stationary point found.

                          Input orientation:
 ---------------------------------------------------------------------
 Center     Atomic      Atomic             Coordinates (Angstroms)
 Number     Number       Type             X           Y           Z
 ---------------------------------------------------------------------
      1          5           0       -1.970607    0.000000    0.000000
      2          5           0        1.970607    0.000000    0.000000
      3          1           0       -2.433669   -1.084920    0.000602
      4          1           0        2.433669    1.084908   -0.005223
      5          1           0       -2.433671    1.084919    0.000817
      6          1           0        2.433671   -1.084899    0.006636
 ---------------------------------------------------------------------

 Alpha  occ. eigenvalues --   -7.11430  -7.11429  -0.57878  -0.57546  -0.45097
 Alpha  occ. eigenvalues --   -0.44999  -0.20276
 Alpha virt. eigenvalues --   -0.06894  -0.05173  -0.03953   0.02280   0.03240
 Alpha virt. eigenvalues --    0.03851   0.05450   0.06231   0.07247   0.08291
 Alpha virt. eigenvalues --    0.10051   0.15407   0.16050   0.17131   0.24258

  Beta  occ. eigenvalues --   -7.11430  -7.11429  -0.57878  -0.57546  -0.45097
  Beta  occ. eigenvalues --   -0.44999  -0.20276
  Beta virt. eigenvalues --   -0.06894  -0.05173  -0.03953   0.02280   0.03240
  Beta virt. eigenvalues --    0.03851   0.05450   0.06231   0.07247   0.08291
  Beta virt. eigenvalues --    0.10051   0.15407   0.16050   0.17131   0.24258

 Mulliken charges and spin densities:
               1          2
     1  B   -0.058220   0.000000
     2  B   -0.058220  -0.000000
     3  H    0.029110   0.000000
     4  H    0.029110  -0.000000
     5  H    0.029110   0.000000
     6  H    0.029110  -0.000000
 Sum of Mulliken charges =  -0.00000   0.00000

 Dipole moment (field-independent basis, Debye):
    X=              0.0000    Y=              0.0000    Z=              0.0013  Tot=              0.0013
 Quadrupole moment (field-independent basis, Debye-Ang):
   XX=            -11.3067   YY=            -16.9512   ZZ=            -14.5341
   XY=             -0.0000   XZ=              0.0000   YZ=              0.0065

 Normal termination of Gaussian 16 at Mon Apr 21 17:13:39 2025.
