 Gaussian 16, Revision A.03,
 Gaussian 16:  ES64L-G16RevA.03 25-Dec-2016

 --------------------------------------------
 #p opt UM062X/6-311+G** nosymm int=superfine
 --------------------------------------------

 -------------------
 Title Card Required
 -------------------
 Symbolic Z-matrix:
 Charge =  0 Multiplicity = 1

 SCF Done:  E(UM062X) =  -109.466447459     A.U. after    9 cycles
 SCF Done:  E(UM062X) =  -109.522079384     A.U. after   10 cycles
 SCF Done:  E(UM062X) =  -109.522107813     A.U. after    7 cycles
 Optimization completed.
    -- Stationary point found.

                          Input orientation:
 ---------------------------------------------------------------------
 Center     Atomic      Atomic             Coordinates (Angstroms)
 Number     Number       Type             X           Y           Z
 ---------------------------------------------------------------------
      1          7           0        0.545048    0.000000    0.000000
      2          7           0       -0.545048    0.000000    0.000000
 ---------------------------------------------------------------------

 Alpha  occ. eigenvalues --  -14.85821 -14.85575  -1.25340  -0.64379  -0.54528
 Alpha  occ. eigenvalues --   -0.54528  -0.51533
 Alpha virt. eigenvalues --    0.02482   0.02482   0.08450   0.08897   0.10305
 Alpha virt. eigenvalues --    0.10305   0.15667   0.18505   0.18505   0.27024
 Alpha virt. eigenvalues --    0.56027   0.70771   0.75076   0.75076   0.86802

  Beta  occ. eigenvalues --  -14.85821 -14.85575  -1.25340  -0.64379  -0.54528
  Beta  occ. eigenvalues --   -0.54528  -0.51533
  Beta virt. eigenvalues --    0.02482   0.02482   0.08450   0.08897   0.10305
  Beta virt. eigenvalues --    0.10305   0.15667   0.18505   0.18505   0.27024
  Beta virt. eigenvalues --    0.56027   0.70771   0.75076   0.75076   0.86802

 Mulliken charges and spin densities:
               1          2
     1  N    0.000000  -0.000000
     2  N   -0.000000   0.000000
 Sum of Mulliken charges =  -0.00000   0.00000

 Dipole moment (field-independent basis, Debye):
    X=              0.0000    Y=             -0.0000    Z=             -0.0000  Tot=              0.0000
 Quadrupole moment (field-independent basis, Debye-Ang):
   XX=            -11.9256   YY=            -10.3033   ZZ=            -10.3033
   XY=             -0.0000   XZ=              0.0000   YZ=             -0.0000

 Normal termination of Gaussian 16 at Wed Feb 26 13:05:20 2025.
