 Gaussian 16, Revision A.03,
 Gaussian 16:  ES64L-G16RevA.03 25-Dec-2016

 --------------------------------------------
 #p opt UM062X/6-311+G** nosymm int=superfine
 --------------------------------------------

 -------------------
 Title Card Required
 -------------------
 Symbolic Z-matrix:
 Charge =  0 Multiplicity = 1

 SCF Done:  E(UM062X) =  -683.630118233     A.U. after   12 cycles
 SCF Done:  E(UM062X) =  -683.630821204     A.U. after   10 cycles
 SCF Done:  E(UM062X) =  -683.631324901     A.U. after   12 cycles
 SCF Done:  E(UM062X) =  -683.631326509     A.U. after   10 cycles
 Optimization completed.
    -- Stationary point found.

                          Input orientation:
 ---------------------------------------------------------------------
 Center     Atomic      Atomic             Coordinates (Angstroms)
 Number     Number       Type             X           Y           Z
 ---------------------------------------------------------------------
      1         15           0       -1.859490    0.000000    0.000000
      2         15           0        1.859490    0.000000    0.000000
      3          1           0       -1.756584   -1.419575    0.000000
      4          1           0        1.756584    1.419575    0.000000
 ---------------------------------------------------------------------

 Alpha  occ. eigenvalues --  -78.08537 -78.08537  -6.90523  -6.90522  -5.01933
 Alpha  occ. eigenvalues --   -5.01933  -5.01925  -5.01925  -5.01734  -5.01734
 Alpha  occ. eigenvalues --   -0.68929  -0.67735  -0.40613  -0.40297  -0.27132
 Alpha  occ. eigenvalues --   -0.24729
 Alpha virt. eigenvalues --   -0.16245  -0.13609   0.01982   0.03051   0.03723
 Alpha virt. eigenvalues --    0.04617   0.05430   0.05845   0.06511   0.07945
 Alpha virt. eigenvalues --    0.08663   0.11893   0.27831   0.30152   0.30605

  Beta  occ. eigenvalues --  -78.08537 -78.08537  -6.90523  -6.90522  -5.01933
  Beta  occ. eigenvalues --   -5.01933  -5.01925  -5.01925  -5.01734  -5.01734
  Beta  occ. eigenvalues --   -0.68929  -0.67735  -0.40613  -0.40297  -0.27132
  Beta  occ. eigenvalues --   -0.24729
  Beta virt. eigenvalues --   -0.16245  -0.13609   0.01982   0.03051   0.03723
  Beta virt. eigenvalues --    0.04617   0.05430   0.05845   0.06511   0.07945
  Beta virt. eigenvalues --    0.08663   0.11893   0.27831   0.30152   0.30605

 Mulliken charges and spin densities:
               1          2
     1  P    0.006698   0.000000
     2  P    0.006698  -0.000000
     3  H   -0.006698  -0.000000
     4  H   -0.006698   0.000000
 Sum of Mulliken charges =  -0.00000   0.00000

 Dipole moment (field-independent basis, Debye):
    X=              0.0000    Y=             -0.0000    Z=              0.0000  Tot=              0.0000
 Quadrupole moment (field-independent basis, Debye-Ang):
   XX=            -26.7895   YY=            -28.4364   ZZ=            -30.8557
   XY=              3.0446   XZ=             -0.0000   YZ=             -0.0000

 Normal termination of Gaussian 16 at Mon Apr 21 21:12:37 2025.
