 Gaussian 16, Revision A.03,
 Gaussian 16:  ES64L-G16RevA.03 25-Dec-2016

 --------------------------------------------
 #p opt UM062X/6-311+G** nosymm int=superfine
 --------------------------------------------

 -------------------
 Title Card Required
 -------------------
 Symbolic Z-matrix:
 Charge =  0 Multiplicity = 1

 SCF Done:  E(UM062X) =  -382.385674503     A.U. after   11 cycles
 SCF Done:  E(UM062X) =  -382.388691242     A.U. after   10 cycles
 SCF Done:  E(UM062X) =  -382.389153781     A.U. after    9 cycles
 SCF Done:  E(UM062X) =  -382.389163080     A.U. after    8 cycles
 SCF Done:  E(UM062X) =  -382.389164238     A.U. after    8 cycles
 Optimization completed.
    -- Stationary point found.

                          Input orientation:
 ---------------------------------------------------------------------
 Center     Atomic      Atomic             Coordinates (Angstroms)
 Number     Number       Type             X           Y           Z
 ---------------------------------------------------------------------
      1          6           0       -1.156264    0.000000    0.000000
      2         15           0        1.156264    0.000000    0.000000
      3          1           0        1.215651   -1.415967    0.020883
      4          1           0       -1.428420    1.025760    0.223476
      5          1           0        1.215666    0.090320    1.413225
      6          1           0       -1.428405   -0.302448   -1.005316
      7          1           0       -1.458515   -0.707045    0.764229
 ---------------------------------------------------------------------

 Alpha  occ. eigenvalues --  -78.02635 -10.55740  -6.85005  -4.96545  -4.96522
 Alpha  occ. eigenvalues --   -4.96302  -0.78200  -0.68719  -0.48319  -0.48082
 Alpha  occ. eigenvalues --   -0.43135  -0.36095  -0.30812
 Alpha virt. eigenvalues --   -0.00859   0.01471   0.03985   0.04518   0.06007
 Alpha virt. eigenvalues --    0.06449   0.06632   0.07859   0.07972   0.13442
 Alpha virt. eigenvalues --    0.17795   0.18821   0.19068   0.26780   0.30265

  Beta  occ. eigenvalues --  -78.02635 -10.55740  -6.85005  -4.96545  -4.96522
  Beta  occ. eigenvalues --   -4.96302  -0.78200  -0.68719  -0.48319  -0.48082
  Beta  occ. eigenvalues --   -0.43135  -0.36095  -0.30812
  Beta virt. eigenvalues --   -0.00859   0.01471   0.03985   0.04518   0.06007
  Beta virt. eigenvalues --    0.06449   0.06632   0.07859   0.07972   0.13442
  Beta virt. eigenvalues --    0.17795   0.18821   0.19068   0.26780   0.30265

 Mulliken charges and spin densities:
               1          2
     1  C   -0.566176   0.000000
     2  P    0.001118  -0.000000
     3  H    0.013672  -0.000000
     4  H    0.179105  -0.000000
     5  H    0.013675   0.000000
     6  H    0.179111  -0.000000
     7  H    0.179494  -0.000000
 Sum of Mulliken charges =  -0.00000   0.00000

 Dipole moment (field-independent basis, Debye):
    X=             -0.6649    Y=             -0.4963    Z=              0.5370  Tot=              0.9883
 Quadrupole moment (field-independent basis, Debye-Ang):
   XX=            -23.1398   YY=            -22.0438   ZZ=            -22.1593
   XY=             -1.0932   XZ=              1.1828   YZ=              0.7332

 Normal termination of Gaussian 16 at Mon Apr 21 19:03:01 2025.
