 Gaussian 16, Revision A.03,
 Gaussian 16:  ES64L-G16RevA.03 25-Dec-2016

 --------------------------------------------
 #p opt UM062X/6-311+G** nosymm int=superfine
 --------------------------------------------

 -------------------
 Title Card Required
 -------------------
 Symbolic Z-matrix:
 Charge =  0 Multiplicity = 1

 SCF Done:  E(UM062X) =  -51.9190997661     A.U. after    8 cycles
 SCF Done:  E(UM062X) =  -51.9209377776     A.U. after    7 cycles
 SCF Done:  E(UM062X) =  -51.9215920177     A.U. after    9 cycles
 SCF Done:  E(UM062X) =  -51.9215859792     A.U. after    8 cycles
 SCF Done:  E(UM062X) =  -51.9215925171     A.U. after    8 cycles
 SCF Done:  E(UM062X) =  -51.9215938793     A.U. after    6 cycles
 SCF Done:  E(UM062X) =  -51.9046456530     A.U. after   10 cycles
 SCF Done:  E(UM062X) =  -51.9072558815     A.U. after   11 cycles
 SCF Done:  E(UM062X) =  -51.9134304649     A.U. after    9 cycles
 SCF Done:  E(UM062X) =  -51.9215938823     A.U. after    3 cycles
 SCF Done:  E(UM062X) =  -51.9220288127     A.U. after   11 cycles
 SCF Done:  E(UM062X) =  -51.9144684804     A.U. after   12 cycles
 SCF Done:  E(UM062X) =  -51.9221176467     A.U. after   10 cycles
 SCF Done:  E(UM062X) =  -51.9226989470     A.U. after   10 cycles
 SCF Done:  E(UM062X) =  -51.9231996054     A.U. after   10 cycles
 SCF Done:  E(UM062X) =  -51.9233610732     A.U. after   10 cycles
 SCF Done:  E(UM062X) =  -51.9233629329     A.U. after    9 cycles
 SCF Done:  E(UM062X) =  -51.9233634388     A.U. after    8 cycles
 Optimization completed.
    -- Stationary point found.

                          Input orientation:
 ---------------------------------------------------------------------
 Center     Atomic      Atomic             Coordinates (Angstroms)
 Number     Number       Type             X           Y           Z
 ---------------------------------------------------------------------
      1          5           0       -1.245607    0.000000    0.000000
      2          5           0        1.245607    0.000000    0.000000
      3          1           0       -1.795539   -0.742344   -0.741132
      4          1           0        1.796485    0.740155   -0.742542
      5          1           0       -1.795544    0.742380    0.741091
      6          1           0        1.793788   -0.741021    0.743715
 ---------------------------------------------------------------------

 Alpha  occ. eigenvalues --   -7.08907  -7.08899  -0.57851  -0.55306  -0.42544
 Alpha  occ. eigenvalues --   -0.42535  -0.27658
 Alpha virt. eigenvalues --   -0.03704  -0.03699   0.02145   0.02327   0.04923
 Alpha virt. eigenvalues --    0.04925   0.07099   0.07521   0.07523   0.07571
 Alpha virt. eigenvalues --    0.11164   0.15897   0.18811   0.21004   0.21012

  Beta  occ. eigenvalues --   -7.08907  -7.08899  -0.57851  -0.55306  -0.42544
  Beta  occ. eigenvalues --   -0.42535  -0.27658
  Beta virt. eigenvalues --   -0.03704  -0.03699   0.02145   0.02327   0.04923
  Beta virt. eigenvalues --    0.04925   0.07099   0.07521   0.07523   0.07571
  Beta virt. eigenvalues --    0.11164   0.15897   0.18811   0.21004   0.21012

 Mulliken charges and spin densities:
               1          2
     1  B   -0.032383   0.000000
     2  B   -0.032240  -0.000000
     3  H    0.016139   0.000000
     4  H    0.016190  -0.000000
     5  H    0.016140  -0.000000
     6  H    0.016153   0.000000
 Sum of Mulliken charges =  -0.00000   0.00000

 Dipole moment (field-independent basis, Debye):
    X=              0.0012    Y=             -0.0004    Z=              0.0003  Tot=              0.0013
 Quadrupole moment (field-independent basis, Debye-Ang):
   XX=            -15.8980   YY=            -15.1732   ZZ=            -15.1761
   XY=              0.0010   XZ=             -0.0015   YZ=             -0.0006

 Normal termination of Gaussian 16 at Mon Apr 21 17:10:28 2025.
