 Gaussian 16, Revision A.03,
 Gaussian 16:  ES64L-G16RevA.03 25-Dec-2016

 --------------------------------------------
 #p opt UM062X/6-311+G** nosymm int=superfine
 --------------------------------------------

 -------------------
 Title Card Required
 -------------------
 Symbolic Z-matrix:
 Charge = -1 Multiplicity = 2

 SCF Done:  E(UM062X) =  -51.9290371689     A.U. after   11 cycles
 SCF Done:  E(UM062X) =  -51.9319595584     A.U. after   10 cycles
 SCF Done:  E(UM062X) =  -51.9331236300     A.U. after    9 cycles
 SCF Done:  E(UM062X) =  -51.9331327379     A.U. after   10 cycles
 SCF Done:  E(UM062X) =  -51.9330997621     A.U. after   12 cycles
 SCF Done:  E(UM062X) =  -51.9331284836     A.U. after   12 cycles
 SCF Done:  E(UM062X) =  -51.9331325207     A.U. after   10 cycles
 Optimization completed.
    -- Stationary point found.

                          Input orientation:
 ---------------------------------------------------------------------
 Center     Atomic      Atomic             Coordinates (Angstroms)
 Number     Number       Type             X           Y           Z
 ---------------------------------------------------------------------
      1          5           0       -1.297274    0.000000    0.000000
      2          5           0        1.297274    0.000000    0.000000
      3          1           0       -1.860378   -1.055728    0.001835
      4          1           0        1.860378    1.055729    0.001328
      5          1           0       -1.860378    1.055729    0.001365
      6          1           0        1.860378   -1.055728    0.001871
 ---------------------------------------------------------------------

 Alpha  occ. eigenvalues --   -6.86503  -6.86497  -0.37213  -0.34986  -0.22142
 Alpha  occ. eigenvalues --   -0.20924  -0.05623   0.01239
 Alpha virt. eigenvalues --    0.14493   0.15528   0.16728   0.19150   0.19248
 Alpha virt. eigenvalues --    0.22468   0.22629   0.24395   0.25127   0.26181
 Alpha virt. eigenvalues --    0.33002   0.34830   0.35913   0.42288   0.50013

  Beta  occ. eigenvalues --   -6.86473  -6.86469  -0.35559  -0.33738  -0.21986
  Beta  occ. eigenvalues --   -0.20880  -0.04484
  Beta virt. eigenvalues --    0.10903   0.13834   0.14605   0.14620   0.16295
  Beta virt. eigenvalues --    0.17841   0.18973   0.19904   0.22278   0.25771
  Beta virt. eigenvalues --    0.27357   0.32047   0.34725   0.34934   0.42095

 Mulliken charges and spin densities:
               1          2
     1  B   -0.406123   0.545207
     2  B   -0.406123   0.545207
     3  H   -0.046939  -0.022603
     4  H   -0.046939  -0.022603
     5  H   -0.046939  -0.022603
     6  H   -0.046939  -0.022603
 Sum of Mulliken charges =  -1.00000   1.00000

 Dipole moment (field-independent basis, Debye):
    X=             -0.0000    Y=              0.0000    Z=              0.0017  Tot=              0.0017
 Quadrupole moment (field-independent basis, Debye-Ang):
   XX=            -31.3050   YY=            -23.4161   ZZ=            -25.2107
   XY=             -0.0000   XZ=             -0.0000   YZ=             -0.0004

 Normal termination of Gaussian 16 at Mon Apr 21 17:22:34 2025.
