 Gaussian 16, Revision A.03,
 Gaussian 16:  ES64L-G16RevA.03 25-Dec-2016

 --------------------------------------------
 #p opt UM062X/6-311+G** nosymm int=superfine
 --------------------------------------------

 -------------------
 Title Card Required
 -------------------
 Symbolic Z-matrix:
 Charge =  0 Multiplicity = 1

 SCF Done:  E(UM062X) =  -684.942862272     A.U. after   11 cycles
 SCF Done:  E(UM062X) =  -684.944224229     A.U. after   11 cycles
 SCF Done:  E(UM062X) =  -684.945284388     A.U. after   11 cycles
 SCF Done:  E(UM062X) =  -684.945536265     A.U. after   10 cycles
 SCF Done:  E(UM062X) =  -684.945602858     A.U. after   10 cycles
 SCF Done:  E(UM062X) =  -684.945631355     A.U. after   10 cycles
 SCF Done:  E(UM062X) =  -684.945656718     A.U. after   10 cycles
 SCF Done:  E(UM062X) =  -684.945687800     A.U. after   10 cycles
 SCF Done:  E(UM062X) =  -684.945714477     A.U. after   10 cycles
 SCF Done:  E(UM062X) =  -684.945743716     A.U. after   12 cycles
 SCF Done:  E(UM062X) =  -684.945807456     A.U. after   12 cycles
 SCF Done:  E(UM062X) =  -684.945845177     A.U. after   10 cycles
 SCF Done:  E(UM062X) =  -684.945858646     A.U. after   14 cycles
 SCF Done:  E(UM062X) =  -684.945859673     A.U. after    9 cycles
 SCF Done:  E(UM062X) =  -684.945859933     A.U. after   10 cycles
 SCF Done:  E(UM062X) =  -684.945860220     A.U. after   10 cycles
 SCF Done:  E(UM062X) =  -684.945860624     A.U. after    9 cycles
 SCF Done:  E(UM062X) =  -684.945860709     A.U. after    9 cycles
 SCF Done:  E(UM062X) =  -684.945860728     A.U. after   10 cycles
 SCF Done:  E(UM062X) =  -684.945860749     A.U. after    8 cycles
 Optimization completed.
    -- Stationary point found.

                          Input orientation:
 ---------------------------------------------------------------------
 Center     Atomic      Atomic             Coordinates (Angstroms)
 Number     Number       Type             X           Y           Z
 ---------------------------------------------------------------------
      1         15           0       -1.917217    0.000000    0.000000
      2         15           0        1.917217    0.000000    0.000000
      3          1           0        1.842853   -0.892568    1.100329
      4          1           0       -1.850375    0.971821    1.031526
      5          1           0        1.843874   -1.067106   -0.931940
      6          1           0       -1.850410    0.995608   -1.008464
 ---------------------------------------------------------------------

 Alpha  occ. eigenvalues --  -78.05029 -78.05027  -6.87387  -6.87385  -4.98940
 Alpha  occ. eigenvalues --   -4.98938  -4.98815  -4.98812  -4.98631  -4.98629
 Alpha  occ. eigenvalues --   -0.71301  -0.70539  -0.45098  -0.44741  -0.36260
 Alpha  occ. eigenvalues --   -0.35921  -0.25939
 Alpha virt. eigenvalues --   -0.13245   0.01660   0.02917   0.03247   0.04069
 Alpha virt. eigenvalues --    0.04819   0.05870   0.06080   0.06094   0.06440
 Alpha virt. eigenvalues --    0.08211   0.14957   0.18653   0.28250   0.28724

  Beta  occ. eigenvalues --  -78.05029 -78.05027  -6.87387  -6.87385  -4.98940
  Beta  occ. eigenvalues --   -4.98938  -4.98815  -4.98812  -4.98631  -4.98629
  Beta  occ. eigenvalues --   -0.71301  -0.70539  -0.45098  -0.44741  -0.36260
  Beta  occ. eigenvalues --   -0.35921  -0.25939
  Beta virt. eigenvalues --   -0.13245   0.01660   0.02917   0.03247   0.04069
  Beta virt. eigenvalues --    0.04819   0.05870   0.06080   0.06094   0.06440
  Beta virt. eigenvalues --    0.08211   0.14957   0.18653   0.28250   0.28724

 Mulliken charges and spin densities:
               1          2
     1  P   -0.020403   0.000000
     2  P   -0.019405  -0.000000
     3  H    0.009596   0.000000
     4  H    0.009540  -0.000000
     5  H    0.010358   0.000000
     6  H    0.010313  -0.000000
 Sum of Mulliken charges =   0.00000   0.00000

 Dipole moment (field-independent basis, Debye):
    X=             -0.0021    Y=              0.0012    Z=              0.0845  Tot=              0.0846
 Quadrupole moment (field-independent basis, Debye-Ang):
   XX=            -28.6894   YY=            -31.2324   ZZ=            -28.5069
   XY=             -4.0487   XZ=              0.1488   YZ=              0.1007

 Normal termination of Gaussian 16 at Mon Apr 21 20:54:27 2025.
