 Gaussian 16, Revision A.03,
 Gaussian 16:  ES64L-G16RevA.03 25-Dec-2016

 --------------------------------------------
 #p opt UM062X/6-311+G** nosymm int=superfine
 --------------------------------------------

 -------------------
 Title Card Required
 -------------------
 Symbolic Z-matrix:
 Charge =  0 Multiplicity = 1

 SCF Done:  E(UM062X) =  -797.419746475     A.U. after   13 cycles
 SCF Done:  E(UM062X) =  -797.420403732     A.U. after   12 cycles
 SCF Done:  E(UM062X) =  -797.421441677     A.U. after   15 cycles
 SCF Done:  E(UM062X) =  -797.421468863     A.U. after   14 cycles
 SCF Done:  E(UM062X) =  -797.421478139     A.U. after   15 cycles
 SCF Done:  E(UM062X) =  -797.421480074     A.U. after   14 cycles
 SCF Done:  E(UM062X) =  -797.421480586     A.U. after   11 cycles
 SCF Done:  E(UM062X) =  -797.421480598     A.U. after   13 cycles
 SCF Done:  E(UM062X) =  -797.421480605     A.U. after   10 cycles
 Optimization completed.
    -- Stationary point found.

                          Input orientation:
 ---------------------------------------------------------------------
 Center     Atomic      Atomic             Coordinates (Angstroms)
 Number     Number       Type             X           Y           Z
 ---------------------------------------------------------------------
      1         16           0       -1.818191    0.000000    0.000000
      2         16           0        1.818191    0.000000    0.000000
      3          1           0       -1.715293   -1.327196   -0.201809
      4          1           0        1.714397    0.233390    1.321847
 ---------------------------------------------------------------------

 Alpha  occ. eigenvalues --  -89.94743 -89.94743  -8.30929  -8.30929  -6.23086
 Alpha  occ. eigenvalues --   -6.23085  -6.22821  -6.22820  -6.22257  -6.22256
 Alpha  occ. eigenvalues --   -0.81779  -0.80927  -0.47391  -0.47334  -0.33544
 Alpha  occ. eigenvalues --   -0.33254  -0.32632
 Alpha virt. eigenvalues --   -0.20036   0.01950   0.03101   0.04515   0.04957
 Alpha virt. eigenvalues --    0.06455   0.07035   0.07317   0.07459   0.10224
 Alpha virt. eigenvalues --    0.13083   0.30574   0.31192   0.33616   0.33908

  Beta  occ. eigenvalues --  -89.94743 -89.94743  -8.30929  -8.30929  -6.23086
  Beta  occ. eigenvalues --   -6.23085  -6.22821  -6.22820  -6.22257  -6.22256
  Beta  occ. eigenvalues --   -0.81779  -0.80927  -0.47391  -0.47334  -0.33544
  Beta  occ. eigenvalues --   -0.33254  -0.32632
  Beta virt. eigenvalues --   -0.20036   0.01950   0.03101   0.04515   0.04957
  Beta virt. eigenvalues --    0.06455   0.07035   0.07317   0.07459   0.10224
  Beta virt. eigenvalues --    0.13083   0.30574   0.31192   0.33616   0.33908

 Mulliken charges and spin densities:
               1          2
     1  S   -0.085696  -0.000004
     2  S   -0.085644   0.000004
     3  H    0.085673   0.000000
     4  H    0.085667  -0.000000
 Sum of Mulliken charges =  -0.00000   0.00000

 Dipole moment (field-independent basis, Debye):
    X=             -0.0006    Y=             -0.8974    Z=              0.9192  Tot=              1.2846
 Quadrupole moment (field-independent basis, Debye-Ang):
   XX=            -25.1030   YY=            -28.0427   ZZ=            -28.1050
   XY=              2.3860   XZ=              2.3286   YZ=              1.3010

 Normal termination of Gaussian 16 at Mon Apr 21 21:18:01 2025.
