 Gaussian 16, Revision A.03,
 Gaussian 16:  ES64L-G16RevA.03 25-Dec-2016

 --------------------------------------------
 #p opt UM062X/6-311+G** nosymm int=superfine
 --------------------------------------------

 -------------------
 Title Card Required
 -------------------
 Symbolic Z-matrix:
 Charge =  0 Multiplicity = 1

 SCF Done:  E(UM062X) =  -79.5552650698     A.U. after   10 cycles
 SCF Done:  E(UM062X) =  -79.5597078614     A.U. after   10 cycles
 SCF Done:  E(UM062X) =  -79.5618131596     A.U. after   12 cycles
 SCF Done:  E(UM062X) =  -79.5618346634     A.U. after    9 cycles
 Optimization completed.
    -- Stationary point found.

                          Input orientation:
 ---------------------------------------------------------------------
 Center     Atomic      Atomic             Coordinates (Angstroms)
 Number     Number       Type             X           Y           Z
 ---------------------------------------------------------------------
      1          6           0       -2.196675    0.000000    0.000000
      2          6           0        2.196800    0.000000    0.000000
      3          1           0        2.234113   -0.934058    0.540490
      4          1           0       -2.233969   -0.935112   -0.538666
      5          1           0        2.234098    0.935112    0.538665
      6          1           0        2.234138   -0.001053   -1.079162
      7          1           0       -2.233988    0.934058   -0.540489
      8          1           0       -2.234018    0.001052    1.079162
 ---------------------------------------------------------------------

 Alpha  occ. eigenvalues --  -10.57254 -10.57253  -0.77200  -0.77016  -0.49427
 Alpha  occ. eigenvalues --   -0.49427  -0.49369  -0.49368  -0.20860
 Alpha virt. eigenvalues --   -0.12444   0.03043   0.04789   0.05253   0.05253
 Alpha virt. eigenvalues --    0.07212   0.07212   0.10874   0.12881   0.18788
 Alpha virt. eigenvalues --    0.18788   0.19802   0.19802   0.20732   0.25323

  Beta  occ. eigenvalues --  -10.57254 -10.57253  -0.77200  -0.77016  -0.49427
  Beta  occ. eigenvalues --   -0.49427  -0.49369  -0.49368  -0.20860
  Beta virt. eigenvalues --   -0.12444   0.03043   0.04789   0.05253   0.05253
  Beta virt. eigenvalues --    0.07212   0.07212   0.10874   0.12881   0.18788
  Beta virt. eigenvalues --    0.18788   0.19802   0.19802   0.20732   0.25323

 Mulliken charges and spin densities:
               1          2
     1  C   -0.520151   0.000001
     2  C   -0.520151  -0.000001
     3  H    0.173384   0.000000
     4  H    0.173384  -0.000000
     5  H    0.173384   0.000000
     6  H    0.173383   0.000000
     7  H    0.173384  -0.000000
     8  H    0.173383  -0.000000
 Sum of Mulliken charges =  -0.00000  -0.00000

 Dipole moment (field-independent basis, Debye):
    X=             -0.0000    Y=             -0.0000    Z=             -0.0000  Tot=              0.0000
 Quadrupole moment (field-independent basis, Debye-Ang):
   XX=            -16.2630   YY=            -14.8866   ZZ=            -14.8867
   XY=             -0.0000   XZ=             -0.0001   YZ=             -0.0000

 Normal termination of Gaussian 16 at Tue Dec  3 10:11:32 2024.
