 Gaussian 16, Revision A.03,
 Gaussian 16:  ES64L-G16RevA.03 25-Dec-2016

 --------------------------------------------
 #p opt UM062X/6-311+G** nosymm int=superfine
 --------------------------------------------

 -------------------
 Title Card Required
 -------------------
 Symbolic Z-matrix:
 Charge =  0 Multiplicity = 1

 SCF Done:  E(UM062X) =  -77.3119130574     A.U. after    9 cycles
 SCF Done:  E(UM062X) =  -77.3134428185     A.U. after    9 cycles
 SCF Done:  E(UM062X) =  -77.3134482381     A.U. after    7 cycles
 Optimization completed.
    -- Stationary point found.

                          Input orientation:
 ---------------------------------------------------------------------
 Center     Atomic      Atomic             Coordinates (Angstroms)
 Number     Number       Type             X           Y           Z
 ---------------------------------------------------------------------
      1          6           0       -0.580560    0.000000    0.000000
      2          6           0        0.580560    0.000000    0.000000
      3          1           0       -1.644263    0.000000   -0.000000
      4          1           0        1.644263   -0.000000   -0.000000
 ---------------------------------------------------------------------

 Alpha  occ. eigenvalues --  -10.53752 -10.53383  -0.86198  -0.64213  -0.56828
 Alpha  occ. eigenvalues --   -0.36461  -0.36461
 Alpha virt. eigenvalues --    0.02655   0.02946   0.05221   0.05221   0.07550
 Alpha virt. eigenvalues --    0.07550   0.09312   0.15593   0.15593   0.16069
 Alpha virt. eigenvalues --    0.20286   0.24534   0.41155   0.44566   0.56383

  Beta  occ. eigenvalues --  -10.53752 -10.53383  -0.86198  -0.64213  -0.56828
  Beta  occ. eigenvalues --   -0.36461  -0.36461
  Beta virt. eigenvalues --    0.02655   0.02946   0.05221   0.05221   0.07550
  Beta virt. eigenvalues --    0.07550   0.09312   0.15593   0.15593   0.16069
  Beta virt. eigenvalues --    0.20286   0.24534   0.41155   0.44566   0.56383

 Mulliken charges and spin densities:
               1          2
     1  C   -0.167152   0.000000
     2  C   -0.167152  -0.000000
     3  H    0.167152  -0.000000
     4  H    0.167152   0.000000
 Sum of Mulliken charges =  -0.00000  -0.00000

 Dipole moment (field-independent basis, Debye):
    X=             -0.0000    Y=              0.0000    Z=             -0.0000  Tot=              0.0000
 Quadrupole moment (field-independent basis, Debye-Ang):
   XX=             -7.0033   YY=            -13.6156   ZZ=            -13.6156
   XY=             -0.0000   XZ=             -0.0000   YZ=              0.0000

 Normal termination of Gaussian 16 at Tue Dec  3 20:02:31 2024.
