 Gaussian 16, Revision A.03,
 Gaussian 16:  ES64L-G16RevA.03 25-Dec-2016

 --------------------------------------------
 #p opt UM062X/6-311+G** nosymm int=superfine
 --------------------------------------------

 -------------------
 Title Card Required
 -------------------
 Symbolic Z-matrix:
 Charge =  0 Multiplicity = 1

 SCF Done:  E(UM062X) =  -51.9661323145     A.U. after    8 cycles
 SCF Done:  E(UM062X) =  -51.9666576127     A.U. after    8 cycles
 SCF Done:  E(UM062X) =  -51.9668153805     A.U. after    8 cycles
 SCF Done:  E(UM062X) =  -51.9668523450     A.U. after    8 cycles
 SCF Done:  E(UM062X) =  -51.9605052027     A.U. after   10 cycles
 SCF Done:  E(UM062X) =  -51.9681046408     A.U. after   10 cycles
 SCF Done:  E(UM062X) =  -51.9705154208     A.U. after   10 cycles
 SCF Done:  E(UM062X) =  -51.9706255251     A.U. after   10 cycles
 SCF Done:  E(UM062X) =  -51.9717355403     A.U. after   10 cycles
 SCF Done:  E(UM062X) =  -51.9677027876     A.U. after   11 cycles
 SCF Done:  E(UM062X) =  -51.9729081310     A.U. after   10 cycles
 SCF Done:  E(UM062X) =  -51.9729150020     A.U. after    8 cycles
 SCF Done:  E(UM062X) =  -51.9729168314     A.U. after    8 cycles
 SCF Done:  E(UM062X) =  -51.9729174403     A.U. after    7 cycles
 SCF Done:  E(UM062X) =  -51.9729175707     A.U. after    7 cycles
 Optimization completed.
    -- Stationary point found.

                          Input orientation:
 ---------------------------------------------------------------------
 Center     Atomic      Atomic             Coordinates (Angstroms)
 Number     Number       Type             X           Y           Z
 ---------------------------------------------------------------------
      1          5           0       -1.045607    0.000000    0.000000
      2          5           0        1.045607    0.000000    0.000000
      3          1           0       -1.633322   -0.733498   -0.727352
      4          1           0        1.633034    0.727212   -0.733829
      5          1           0       -1.633751    0.733360    0.727123
      6          1           0        1.633466   -0.727144    0.733530
 ---------------------------------------------------------------------

 Alpha  occ. eigenvalues --   -7.07197  -7.07181  -0.58966  -0.54247  -0.41700
 Alpha  occ. eigenvalues --   -0.41694  -0.31507
 Alpha virt. eigenvalues --   -0.03418  -0.03416   0.02309   0.02929   0.04888
 Alpha virt. eigenvalues --    0.04889   0.06853   0.07672   0.07673   0.11016
 Alpha virt. eigenvalues --    0.14909   0.16818   0.19915   0.21847   0.21851

  Beta  occ. eigenvalues --   -7.07197  -7.07181  -0.58966  -0.54247  -0.41700
  Beta  occ. eigenvalues --   -0.41694  -0.31507
  Beta virt. eigenvalues --   -0.03418  -0.03416   0.02309   0.02929   0.04888
  Beta virt. eigenvalues --    0.04889   0.06853   0.07672   0.07673   0.11016
  Beta virt. eigenvalues --    0.14909   0.16818   0.19915   0.21847   0.21851

 Mulliken charges and spin densities:
               1          2
     1  B   -0.030212   0.000000
     2  B   -0.030144  -0.000000
     3  H    0.015077   0.000000
     4  H    0.015094   0.000000
     5  H    0.015084  -0.000000
     6  H    0.015102   0.000000
 Sum of Mulliken charges =  -0.00000   0.00000

 Dipole moment (field-independent basis, Debye):
    X=              0.0005    Y=              0.0000    Z=              0.0000  Tot=              0.0005
 Quadrupole moment (field-independent basis, Debye-Ang):
   XX=            -16.7200   YY=            -14.9758   ZZ=            -14.9765
   XY=             -0.0001   XZ=              0.0001   YZ=             -0.0004

 Normal termination of Gaussian 16 at Mon Apr 21 17:05:04 2025.
