 Gaussian 16, Revision A.03,
 Gaussian 16:  ES64L-G16RevA.03 25-Dec-2016

 --------------------------------------------
 #p opt UM062X/6-311+G** nosymm int=superfine
 --------------------------------------------

 -------------------
 Title Card Required
 -------------------
 Symbolic Z-matrix:
 Charge =  1 Multiplicity = 2

 SCF Done:  E(UM062X) =  -580.969601534     A.U. after   10 cycles
 SCF Done:  E(UM062X) =  -580.969691099     A.U. after    8 cycles
 SCF Done:  E(UM062X) =  -580.969713741     A.U. after    9 cycles
 SCF Done:  E(UM062X) =  -580.969317901     A.U. after   10 cycles
 SCF Done:  E(UM062X) =  -580.969719802     A.U. after    8 cycles
 SCF Done:  E(UM062X) =  -580.969719768     A.U. after    7 cycles
 SCF Done:  E(UM062X) =  -580.969720023     A.U. after    7 cycles
 Optimization completed.
    -- Stationary point found.

                          Input orientation:
 ---------------------------------------------------------------------
 Center     Atomic      Atomic             Coordinates (Angstroms)
 Number     Number       Type             X           Y           Z
 ---------------------------------------------------------------------
      1         14           0       -1.266295    0.000000    0.000000
      2         14           0        1.266295    0.000000    0.000000
      3          1           0       -1.974541   -1.284352   -0.000632
      4          1           0        1.974541    1.284352    0.000618
      5          1           0       -1.974543    1.284351    0.000602
      6          1           0        1.974544   -1.284350   -0.000628
 ---------------------------------------------------------------------

 Alpha  occ. eigenvalues --  -67.26190 -67.26190  -5.80713  -5.80710  -4.12392
 Alpha  occ. eigenvalues --   -4.12389  -4.11658  -4.11637  -4.11557  -4.11555
 Alpha  occ. eigenvalues --   -0.84512  -0.78813  -0.64903  -0.63208  -0.57640
 Alpha  occ. eigenvalues --   -0.45863
 Alpha virt. eigenvalues --   -0.28623  -0.21916  -0.15804  -0.13570  -0.11331
 Alpha virt. eigenvalues --   -0.10918  -0.09495  -0.08840  -0.08398  -0.07740
 Alpha virt. eigenvalues --   -0.06920  -0.05775  -0.01247   0.04518   0.09100

  Beta  occ. eigenvalues --  -67.25901 -67.25901  -5.80629  -5.80628  -4.11676
  Beta  occ. eigenvalues --   -4.11672  -4.11594  -4.11569  -4.11452  -4.11449
  Beta  occ. eigenvalues --   -0.82376  -0.77470  -0.64787  -0.63318  -0.57012
  Beta virt. eigenvalues --   -0.30870  -0.23715  -0.19592  -0.15626  -0.14635
  Beta virt. eigenvalues --   -0.12159  -0.10834  -0.09450  -0.08989  -0.07910
  Beta virt. eigenvalues --   -0.07169  -0.06638  -0.03905  -0.02648   0.04421

 Mulliken charges and spin densities:
               1          2
     1  Si   0.433929   0.553114
     2  Si   0.433928   0.553114
     3  H    0.033036  -0.026557
     4  H    0.033036  -0.026557
     5  H    0.033036  -0.026557
     6  H    0.033036  -0.026557
 Sum of Mulliken charges =   1.00000   1.00000

 Dipole moment (field-independent basis, Debye):
    X=             -0.0000    Y=             -0.0000    Z=              0.0000  Tot=              0.0000
 Quadrupole moment (field-independent basis, Debye-Ang):
   XX=            -12.4989   YY=            -23.4671   ZZ=            -23.9768
   XY=             -0.0000   XZ=             -0.0000   YZ=              0.0002

 Normal termination of Gaussian 16 at Mon Apr 21 20:18:28 2025.
