 Gaussian 16, Revision A.03,
 Gaussian 16:  ES64L-G16RevA.03 25-Dec-2016

 --------------------------------------------
 #p opt UM062X/6-311+G** nosymm int=superfine
 --------------------------------------------

 -------------------
 Title Card Required
 -------------------
 Symbolic Z-matrix:
 Charge =  0 Multiplicity = 1

 SCF Done:  E(UM062X) =  -92.8803988195     A.U. after   14 cycles
 SCF Done:  E(UM062X) =  -92.8822718609     A.U. after   11 cycles
 SCF Done:  E(UM062X) =  -92.8822820594     A.U. after    9 cycles
 Optimization completed.
    -- Stationary point found.

                          Input orientation:
 ---------------------------------------------------------------------
 Center     Atomic      Atomic             Coordinates (Angstroms)
 Number     Number       Type             X           Y           Z
 ---------------------------------------------------------------------
      1          6           0       -1.297395    0.000000    0.000000
      2          7           0        1.297395    0.000000    0.000000
      3          1           0       -2.421470   -0.000000    0.000000
 ---------------------------------------------------------------------

 Alpha  occ. eigenvalues --  -14.85010 -10.75014  -0.79846  -0.77873  -0.44186
 Alpha  occ. eigenvalues --   -0.29004  -0.29004
 Alpha virt. eigenvalues --   -0.15914  -0.15914  -0.08876   0.00736   0.07107
 Alpha virt. eigenvalues --    0.07109   0.07109   0.13210   0.17049   0.17049
 Alpha virt. eigenvalues --    0.17904   0.25792   0.44040   0.52972   0.52972

  Beta  occ. eigenvalues --  -14.85010 -10.75014  -0.79846  -0.77873  -0.44186
  Beta  occ. eigenvalues --   -0.29004  -0.29004
  Beta virt. eigenvalues --   -0.15914  -0.15914  -0.08876   0.00736   0.07107
  Beta virt. eigenvalues --    0.07109   0.07109   0.13210   0.17049   0.17049
  Beta virt. eigenvalues --    0.17904   0.25792   0.44040   0.52972   0.52972

 Mulliken charges and spin densities:
               1          2
     1  C   -0.034640   0.000001
     2  N   -0.155651  -0.000001
     3  H    0.190291  -0.000000
 Sum of Mulliken charges =  -0.00000   0.00000

 Dipole moment (field-independent basis, Debye):
    X=             -4.2947    Y=             -0.0000    Z=              0.0000  Tot=              4.2947
 Quadrupole moment (field-independent basis, Debye-Ang):
   XX=             -5.8403   YY=            -14.2813   ZZ=            -14.2813
   XY=              0.0000   XZ=             -0.0000   YZ=             -0.0000

 Normal termination of Gaussian 16 at Mon Apr 21 18:33:40 2025.
