 Gaussian 16, Revision A.03,
 Gaussian 16:  ES64L-G16RevA.03 25-Dec-2016

 --------------------------------------------
 #p opt UM062X/6-311+G** nosymm int=superfine
 --------------------------------------------

 -------------------
 Title Card Required
 -------------------
 Symbolic Z-matrix:
 Charge = -1 Multiplicity = 2

 SCF Done:  E(UM062X) =  -51.8474247728     A.U. after   12 cycles
 SCF Done:  E(UM062X) =  -51.8474399407     A.U. after   13 cycles
 Optimization completed.
    -- Stationary point found.

                          Input orientation:
 ---------------------------------------------------------------------
 Center     Atomic      Atomic             Coordinates (Angstroms)
 Number     Number       Type             X           Y           Z
 ---------------------------------------------------------------------
      1          5           0       -2.022274    0.000000    0.000000
      2          5           0        2.022274    0.000000    0.000000
      3          1           0       -2.692450   -1.012763   -0.000020
      4          1           0        2.692450    1.012763   -0.000494
      5          1           0       -2.692453    1.012762   -0.000016
      6          1           0        2.692453   -1.012762    0.000459
 ---------------------------------------------------------------------

 Alpha  occ. eigenvalues --   -6.87713  -6.87712  -0.37865  -0.37759  -0.21965
 Alpha  occ. eigenvalues --   -0.21899  -0.05549  -0.02004
 Alpha virt. eigenvalues --    0.11827   0.13177   0.15103   0.15742   0.15773
 Alpha virt. eigenvalues --    0.17563   0.19951   0.20924   0.20927   0.23150
 Alpha virt. eigenvalues --    0.32177   0.33505   0.34111   0.37292   0.50525

  Beta  occ. eigenvalues --   -6.87111  -6.87110  -0.36538  -0.36360  -0.21281
  Beta  occ. eigenvalues --   -0.21199   0.01642
  Beta virt. eigenvalues --    0.12857   0.13132   0.14226   0.14505   0.16584
  Beta virt. eigenvalues --    0.17956   0.18184   0.22266   0.22531   0.24029
  Beta virt. eigenvalues --    0.25287   0.32225   0.33659   0.34235   0.38117

 Mulliken charges and spin densities:
               1          2
     1  B   -0.341409   0.491884
     2  B   -0.341409   0.491884
     3  H   -0.079296   0.004058
     4  H   -0.079296   0.004058
     5  H   -0.079296   0.004058
     6  H   -0.079296   0.004058
 Sum of Mulliken charges =  -1.00000   1.00000

 Dipole moment (field-independent basis, Debye):
    X=              0.0000    Y=             -0.0000    Z=             -0.0001  Tot=              0.0001
 Quadrupole moment (field-independent basis, Debye-Ang):
   XX=            -41.9930   YY=            -24.5537   ZZ=            -19.0166
   XY=              0.0000   XZ=             -0.0000   YZ=              0.0013

 Normal termination of Gaussian 16 at Mon Apr 21 17:26:16 2025.
