 Gaussian 16, Revision A.03,
 Gaussian 16:  ES64L-G16RevA.03 25-Dec-2016

 --------------------------------------------
 #p opt UM062X/6-311+G** nosymm int=superfine
 --------------------------------------------

 -------------------
 Title Card Required
 -------------------
 Symbolic Z-matrix:
 Charge =  1 Multiplicity = 2

 SCF Done:  E(UM062X) =  -579.675169593     A.U. after   14 cycles
 SCF Done:  E(UM062X) =  -579.676234836     A.U. after   12 cycles
 SCF Done:  E(UM062X) =  -579.677676011     A.U. after   12 cycles
 SCF Done:  E(UM062X) =  -579.679005928     A.U. after   14 cycles
 SCF Done:  E(UM062X) =  -579.679530853     A.U. after   14 cycles
 SCF Done:  E(UM062X) =  -579.679844104     A.U. after   14 cycles
 SCF Done:  E(UM062X) =  -579.679912323     A.U. after   11 cycles
 SCF Done:  E(UM062X) =  -579.679921568     A.U. after   10 cycles
 SCF Done:  E(UM062X) =  -579.679924554     A.U. after   10 cycles
 SCF Done:  E(UM062X) =  -579.679931478     A.U. after   12 cycles
 SCF Done:  E(UM062X) =  -579.679937073     A.U. after   10 cycles
 SCF Done:  E(UM062X) =  -579.679939214     A.U. after   12 cycles
 Optimization completed.
    -- Stationary point found.

                          Input orientation:
 ---------------------------------------------------------------------
 Center     Atomic      Atomic             Coordinates (Angstroms)
 Number     Number       Type             X           Y           Z
 ---------------------------------------------------------------------
      1         14           0       -2.227975    0.000000    0.000000
      2         14           0        2.227975    0.000000    0.000000
      3          1           0       -2.321614   -1.505493   -0.000000
      4          1           0        2.321033    1.505537   -0.000000
 ---------------------------------------------------------------------

 Alpha  occ. eigenvalues --  -67.26355 -67.26354  -5.80522  -5.80520  -4.11618
 Alpha  occ. eigenvalues --   -4.11618  -4.11535  -4.11535  -4.10886  -4.10885
 Alpha  occ. eigenvalues --   -0.75411  -0.74903  -0.52084  -0.51908  -0.39959
 Alpha virt. eigenvalues --   -0.29374  -0.27339  -0.26593  -0.10699  -0.09377
 Alpha virt. eigenvalues --   -0.08454  -0.08027  -0.07634  -0.06583  -0.05558
 Alpha virt. eigenvalues --   -0.05470  -0.04845  -0.02517   0.12664   0.13955

  Beta  occ. eigenvalues --  -67.26102 -67.26102  -5.80450  -5.80448  -4.11474
  Beta  occ. eigenvalues --   -4.11473  -4.10940  -4.10940  -4.10784  -4.10783
  Beta  occ. eigenvalues --   -0.73557  -0.73296  -0.51452  -0.51240
  Beta virt. eigenvalues --   -0.27755  -0.27175  -0.26189  -0.23725  -0.14044
  Beta virt. eigenvalues --   -0.10761  -0.09082  -0.08360  -0.08218  -0.06579
  Beta virt. eigenvalues --   -0.05501  -0.05391  -0.05136  -0.02629   0.10115

 Mulliken charges and spin densities:
               1          2
     1  Si   0.582536   0.508509
     2  Si   0.582566   0.508487
     3  H   -0.082545  -0.008497
     4  H   -0.082557  -0.008499
 Sum of Mulliken charges =   1.00000   1.00000

 Dipole moment (field-independent basis, Debye):
    X=             -0.0001    Y=              0.0001    Z=             -0.0000  Tot=              0.0001
 Quadrupole moment (field-independent basis, Debye-Ang):
   XX=              4.7641   YY=            -27.7753   ZZ=            -19.9895
   XY=              2.3885   XZ=             -0.0000   YZ=              0.0000

 Normal termination of Gaussian 16 at Mon Apr 21 20:42:59 2025.
