 Gaussian 16, Revision A.03,
 Gaussian 16:  ES64L-G16RevA.03 25-Dec-2016

 ---------------------------------------
 #p UM062X/6-311+G** force int=superfine
 ---------------------------------------

 -------------------
 Title Card Required
 -------------------
 Symbolic Z-matrix:
 Charge =  1 Multiplicity = 2

                         Standard orientation:
 ---------------------------------------------------------------------
 Center     Atomic      Atomic             Coordinates (Angstroms)
 Number     Number       Type             X           Y           Z
 ---------------------------------------------------------------------
      1          6           0        0.000000    0.000000   -0.807745
      2          6           0        0.000000    0.000000    0.807745
      3          1           0        0.000000    0.000000   -1.901316
      4          1           0        0.000000    0.000000    1.901322
 ---------------------------------------------------------------------

 SCF Done:  E(UM062X) =  -76.7718058626     A.U. after   10 cycles

 Unable to determine electronic state:  an orbital has unidentified symmetry.
 Alpha  occ. eigenvalues --  -10.99306 -10.99263  -1.11729  -0.98955  -0.85394
 Alpha  occ. eigenvalues --   -0.64759  -0.62584
 Alpha virt. eigenvalues --   -0.35173  -0.33171  -0.25046  -0.14240  -0.10889
 Alpha virt. eigenvalues --   -0.10754  -0.09245  -0.09005  -0.05276  -0.04947
 Alpha virt. eigenvalues --    0.01641   0.03957   0.08487   0.22018   0.31434

  Beta  occ. eigenvalues --  -10.99061 -10.99030  -1.07715  -0.97220  -0.84614
  Beta  occ. eigenvalues --   -0.60531
  Beta virt. eigenvalues --   -0.41505  -0.31460  -0.27237  -0.22920  -0.15317
  Beta virt. eigenvalues --   -0.11169  -0.11149  -0.09611  -0.09424  -0.05162
  Beta virt. eigenvalues --   -0.04830   0.00835   0.04069   0.08882   0.22831

 Mulliken charges and spin densities:
               1          2
     1  C    0.144392   0.521329
     2  C    0.144393   0.521328
     3  H    0.355606  -0.021328
     4  H    0.355609  -0.021328
 Sum of Mulliken charges =   1.00000   1.00000

 Dipole moment (field-independent basis, Debye):
    X=              0.0000    Y=              0.0000    Z=              0.0000  Tot=              0.0000
 Quadrupole moment (field-independent basis, Debye-Ang):
   XX=            -12.5753   YY=            -10.5272   ZZ=              2.4626
   XY=              0.0000   XZ=              0.0000   YZ=              0.0000

 Normal termination of Gaussian 16 at Tue Nov 19 13:36:06 2024.
