 Gaussian 16, Revision A.03,
 Gaussian 16:  ES64L-G16RevA.03 25-Dec-2016

 --------------------------------------------
 #p opt UM062X/6-311+G** nosymm int=superfine
 --------------------------------------------

 -------------------
 Title Card Required
 -------------------
 Symbolic Z-matrix:
 Charge =  0 Multiplicity = 1

 SCF Done:  E(UM062X) =  -51.8524997994     A.U. after    9 cycles
 SCF Done:  E(UM062X) =  -51.8564362477     A.U. after    8 cycles
 SCF Done:  E(UM062X) =  -51.8582986880     A.U. after   10 cycles
 SCF Done:  E(UM062X) =  -51.8582988918     A.U. after    8 cycles
 SCF Done:  E(UM062X) =  -51.8582740839     A.U. after    9 cycles
 SCF Done:  E(UM062X) =  -51.8582998362     A.U. after    9 cycles
 Optimization completed.
    -- Stationary point found.

                          Input orientation:
 ---------------------------------------------------------------------
 Center     Atomic      Atomic             Coordinates (Angstroms)
 Number     Number       Type             X           Y           Z
 ---------------------------------------------------------------------
      1          5           0       -1.570607    0.000000    0.000000
      2          5           0        1.570607    0.000000    0.000000
      3          1           0       -2.069458   -1.070312   -0.000984
      4          1           0        2.069458    1.070291   -0.006702
      5          1           0       -2.069459    1.070312    0.000864
      6          1           0        2.069459   -1.070292    0.006533
 ---------------------------------------------------------------------

 Alpha  occ. eigenvalues --   -7.10523  -7.10521  -0.57554  -0.56594  -0.44104
 Alpha  occ. eigenvalues --   -0.43675  -0.23260
 Alpha virt. eigenvalues --   -0.05391  -0.02670  -0.02445   0.02312   0.03849
 Alpha virt. eigenvalues --    0.03880   0.05760   0.06267   0.07658   0.07658
 Alpha virt. eigenvalues --    0.10422   0.15828   0.17265   0.17266   0.25587

  Beta  occ. eigenvalues --   -7.10523  -7.10521  -0.57554  -0.56594  -0.44104
  Beta  occ. eigenvalues --   -0.43675  -0.23260
  Beta virt. eigenvalues --   -0.05391  -0.02670  -0.02445   0.02312   0.03849
  Beta virt. eigenvalues --    0.03880   0.05760   0.06267   0.07658   0.07658
  Beta virt. eigenvalues --    0.10422   0.15828   0.17265   0.17266   0.25587

 Mulliken charges and spin densities:
               1          2
     1  B   -0.048997  -0.000000
     2  B   -0.048997   0.000000
     3  H    0.024499   0.000000
     4  H    0.024499   0.000000
     5  H    0.024499  -0.000000
     6  H    0.024499   0.000000
 Sum of Mulliken charges =  -0.00000  -0.00000

 Dipole moment (field-independent basis, Debye):
    X=              0.0000    Y=             -0.0000    Z=             -0.0000  Tot=              0.0000
 Quadrupole moment (field-independent basis, Debye-Ang):
   XX=            -13.8491   YY=            -16.8913   ZZ=            -14.0792
   XY=              0.0000   XZ=              0.0001   YZ=              0.0075

 Normal termination of Gaussian 16 at Mon Apr 21 17:15:48 2025.
