 Gaussian 16, Revision A.03,
 Gaussian 16:  ES64L-G16RevA.03 25-Dec-2016

 --------------------------------------------
 #p opt UM062X/6-311+G** nosymm int=superfine
 --------------------------------------------

 -------------------
 Title Card Required
 -------------------
 Symbolic Z-matrix:
 Charge =  0 Multiplicity = 1

 SCF Done:  E(UM062X) =  -81.9672662797     A.U. after   10 cycles
 SCF Done:  E(UM062X) =  -81.9682947280     A.U. after    8 cycles
 SCF Done:  E(UM062X) =  -81.9682471414     A.U. after   10 cycles
 SCF Done:  E(UM062X) =  -81.9677289916     A.U. after   10 cycles
 SCF Done:  E(UM062X) =  -81.9675329292     A.U. after   10 cycles
 SCF Done:  E(UM062X) =  -81.9684338115     A.U. after    7 cycles
 SCF Done:  E(UM062X) =  -81.9685798633     A.U. after    9 cycles
 SCF Done:  E(UM062X) =  -81.9685810759     A.U. after    8 cycles
 SCF Done:  E(UM062X) =  -81.9685797593     A.U. after    8 cycles
 SCF Done:  E(UM062X) =  -81.9685816808     A.U. after    8 cycles
 SCF Done:  E(UM062X) =  -81.9683899352     A.U. after   10 cycles
 SCF Done:  E(UM062X) =  -81.9687103984     A.U. after    7 cycles
 SCF Done:  E(UM062X) =  -81.9687740028     A.U. after   10 cycles
 SCF Done:  E(UM062X) =  -81.9688269411     A.U. after   10 cycles
 SCF Done:  E(UM062X) =  -81.9645152118     A.U. after   10 cycles
 SCF Done:  E(UM062X) =  -81.9688195487     A.U. after   10 cycles
 SCF Done:  E(UM062X) =  -81.9688342293     A.U. after    6 cycles
 SCF Done:  E(UM062X) =  -81.9688461237     A.U. after    9 cycles
 SCF Done:  E(UM062X) =  -81.9688466838     A.U. after    8 cycles
 SCF Done:  E(UM062X) =  -81.9688468611     A.U. after    7 cycles
 Optimization completed.
    -- Stationary point found.

                          Input orientation:
 ---------------------------------------------------------------------
 Center     Atomic      Atomic             Coordinates (Angstroms)
 Number     Number       Type             X           Y           Z
 ---------------------------------------------------------------------
      1          5           0       -0.870399    0.000000    0.000000
      2          7           0        0.870399    0.000000    0.000000
      3          1           0       -1.377909   -1.065830   -0.029074
      4          1           0        1.340706    0.846869    0.278647
      5          1           0       -1.377921    1.065818   -0.029260
      6          1           0        1.340666   -0.846804    0.278914
 ---------------------------------------------------------------------

 Alpha  occ. eigenvalues --  -14.73647  -7.08986  -0.92236  -0.58116  -0.55087
 Alpha  occ. eigenvalues --   -0.42927  -0.42559  -0.32151
 Alpha virt. eigenvalues --   -0.01230   0.01308   0.03057   0.03648   0.06296
 Alpha virt. eigenvalues --    0.11039   0.12849   0.16035   0.16721   0.18071
 Alpha virt. eigenvalues --    0.20267   0.21239   0.23849   0.25678   0.37895

  Beta  occ. eigenvalues --  -14.73647  -7.08986  -0.92236  -0.58116  -0.55087
  Beta  occ. eigenvalues --   -0.42927  -0.42559  -0.32151
  Beta virt. eigenvalues --   -0.01230   0.01308   0.03057   0.03648   0.06296
  Beta virt. eigenvalues --    0.11039   0.12849   0.16035   0.16721   0.18071
  Beta virt. eigenvalues --    0.20267   0.21239   0.23849   0.25678   0.37895

 Mulliken charges and spin densities:
               1          2
     1  B    0.169830  -0.000000
     2  N   -0.691748  -0.000000
     3  H    0.008997   0.000000
     4  H    0.251963   0.000000
     5  H    0.008997  -0.000000
     6  H    0.251961  -0.000000
 Sum of Mulliken charges =  -0.00000  -0.00000

 Dipole moment (field-independent basis, Debye):
    X=              0.0758    Y=              0.0001    Z=              0.8348  Tot=              0.8383
 Quadrupole moment (field-independent basis, Debye-Ang):
   XX=            -13.1137   YY=            -13.0534   ZZ=            -15.4363
   XY=              0.0002   XZ=              1.3305   YZ=             -0.0005

 Normal termination of Gaussian 16 at Mon Apr 21 17:45:28 2025.
