 Gaussian 16, Revision A.03,
 Gaussian 16:  ES64L-G16RevA.03 25-Dec-2016

 --------------------------------------------
 #p opt UM062X/6-311+G** nosymm int=superfine
 --------------------------------------------

 -------------------
 Title Card Required
 -------------------
 Symbolic Z-matrix:
 Charge =  0 Multiplicity = 1

 SCF Done:  E(UM062X) =  -382.219198721     A.U. after   18 cycles
 SCF Done:  E(UM062X) =  -382.229896701     A.U. after   13 cycles
 SCF Done:  E(UM062X) =  -382.236738357     A.U. after   14 cycles
 SCF Done:  E(UM062X) =  -382.236861456     A.U. after   12 cycles
 SCF Done:  E(UM062X) =  -382.236916778     A.U. after   12 cycles
 SCF Done:  E(UM062X) =  -382.236998921     A.U. after   10 cycles
 SCF Done:  E(UM062X) =  -382.237041640     A.U. after   11 cycles
 SCF Done:  E(UM062X) =  -382.237049095     A.U. after   11 cycles
 SCF Done:  E(UM062X) =  -382.237049736     A.U. after   10 cycles
 SCF Done:  E(UM062X) =  -382.237050251     A.U. after   10 cycles
 SCF Done:  E(UM062X) =  -382.237051284     A.U. after   10 cycles
 SCF Done:  E(UM062X) =  -382.237051893     A.U. after   10 cycles
 SCF Done:  E(UM062X) =  -382.237052106     A.U. after   10 cycles
 Optimization completed.
    -- Stationary point found.

                          Input orientation:
 ---------------------------------------------------------------------
 Center     Atomic      Atomic             Coordinates (Angstroms)
 Number     Number       Type             X           Y           Z
 ---------------------------------------------------------------------
      1          6           0       -2.281264    0.000000    0.000000
      2         15           0        2.281264    0.000000    0.000000
      3          1           0        2.194543   -1.416856    0.020683
      4          1           0       -2.292187    1.054599    0.233452
      5          1           0        2.193412    0.070940    1.415129
      6          1           0       -2.292411   -0.324179   -1.030333
      7          1           0       -2.336083   -0.729013    0.795342
 ---------------------------------------------------------------------

 Alpha  occ. eigenvalues --  -78.02924 -10.59818  -6.85361  -4.96881  -4.96810
 Alpha  occ. eigenvalues --   -4.96628  -0.79270  -0.69357  -0.51480  -0.51450
 Alpha  occ. eigenvalues --   -0.43524  -0.34622  -0.22470
 Alpha virt. eigenvalues --   -0.14213   0.02080   0.03735   0.03978   0.04483
 Alpha virt. eigenvalues --    0.06079   0.06529   0.07209   0.07344   0.10861
 Alpha virt. eigenvalues --    0.16170   0.17931   0.17977   0.22460   0.30599

  Beta  occ. eigenvalues --  -78.02924 -10.59818  -6.85361  -4.96881  -4.96810
  Beta  occ. eigenvalues --   -4.96628  -0.79270  -0.69357  -0.51480  -0.51450
  Beta  occ. eigenvalues --   -0.43524  -0.34622  -0.22470
  Beta virt. eigenvalues --   -0.14213   0.02080   0.03735   0.03978   0.04483
  Beta virt. eigenvalues --    0.06079   0.06529   0.07209   0.07344   0.10861
  Beta virt. eigenvalues --    0.16170   0.17931   0.17977   0.22460   0.30599

 Mulliken charges and spin densities:
               1          2
     1  C   -0.479845  -0.000000
     2  P   -0.046151   0.000000
     3  H   -0.011056  -0.000000
     4  H    0.183481   0.000000
     5  H   -0.011057  -0.000000
     6  H    0.183443   0.000000
     7  H    0.181185   0.000000
 Sum of Mulliken charges =  -0.00000   0.00000

 Dipole moment (field-independent basis, Debye):
    X=             -1.8799    Y=             -0.5831    Z=              0.6222  Tot=              2.0643
 Quadrupole moment (field-independent basis, Debye-Ang):
   XX=            -22.7703   YY=            -22.4380   ZZ=            -22.5295
   XY=             -1.3963   XZ=              1.4878   YZ=              0.7058

 Normal termination of Gaussian 16 at Mon Apr 21 19:11:22 2025.
