 Gaussian 16, Revision A.03,
 Gaussian 16:  ES64L-G16RevA.03 25-Dec-2016

 ---------------------------------------------------
 #p UM062X/6-311+G** force int=superfine pop=saveNBO
 ---------------------------------------------------

 -------------------
 Title Card Required
 -------------------
 Symbolic Z-matrix:
 Charge =  0 Multiplicity = 1

                         Standard orientation:
 ---------------------------------------------------------------------
 Center     Atomic      Atomic             Coordinates (Angstroms)
 Number     Number       Type             X           Y           Z
 ---------------------------------------------------------------------
      1          6           0        0.000000    0.000000   -1.726951
      2          8           0        0.000000    0.000000    1.295213
 ---------------------------------------------------------------------

 SCF Done:  E(UM062X) =  -112.677421405     A.U. after   23 cycles

 The electronic state is 1-SG.
 Alpha  occ. eigenvalues --  -19.69326 -10.86893  -0.98361  -0.73977  -0.34874
 Alpha  occ. eigenvalues --   -0.32389  -0.32389
 Alpha virt. eigenvalues --   -0.22247  -0.22247  -0.19948   0.02151   0.05873
 Alpha virt. eigenvalues --    0.05873   0.07075   0.19841   0.22019   0.22019
 Alpha virt. eigenvalues --    0.28193   0.49446   0.49446   0.51260   0.59924

  Beta  occ. eigenvalues --  -19.69326 -10.86893  -0.98361  -0.73977  -0.34874
  Beta  occ. eigenvalues --   -0.32389  -0.32389
  Beta virt. eigenvalues --   -0.22247  -0.22247  -0.19948   0.02151   0.05873
  Beta virt. eigenvalues --    0.05873   0.07075   0.19841   0.22019   0.22019
  Beta virt. eigenvalues --    0.28193   0.49446   0.49446   0.51260   0.59924

 Mulliken charges and spin densities:
               1          2
     1  C    0.367376   0.000000
     2  O   -0.367376  -0.000000
 Sum of Mulliken charges =  -0.00000   0.00000

 Dipole moment (field-independent basis, Debye):
    X=              0.0000    Y=              0.0000    Z=             -5.3023  Tot=              5.3023
 Quadrupole moment (field-independent basis, Debye-Ang):
   XX=            -12.1890   YY=            -12.1890   ZZ=             -8.3944
   XY=              0.0000   XZ=              0.0000   YZ=              0.0000

 Summary of Natural Population Analysis:

                                       Natural Population
                Natural  -----------------------------------------------
    Atom  No    Charge         Core      Valence    Rydberg      Total
 -----------------------------------------------------------------------
      C    1    0.23371      1.00000     1.76612    0.00017     2.76629
      O    2   -0.23371      1.00000     3.23358    0.00013     4.23371
 =======================================================================
   * Total *   -0.00000      2.00000     4.99970    0.00030     7.00000

 Normal termination of Gaussian 16 at Mon Apr 21 19:31:05 2025.
