 Gaussian 16, Revision A.03,
 Gaussian 16:  ES64L-G16RevA.03 25-Dec-2016

 --------------------------------------------
 #p opt UM062X/6-311+G** nosymm int=superfine
 --------------------------------------------

 -------------------
 Title Card Required
 -------------------
 Symbolic Z-matrix:
 Charge =  0 Multiplicity = 1

 SCF Done:  E(UM062X) =  -474.442102363     A.U. after   17 cycles
 SCF Done:  E(UM062X) =  -474.445305975     A.U. after   15 cycles
 SCF Done:  E(UM062X) =  -474.447083228     A.U. after   17 cycles
 SCF Done:  E(UM062X) =  -474.447114104     A.U. after   16 cycles
 SCF Done:  E(UM062X) =  -474.447114902     A.U. after   11 cycles
 SCF Done:  E(UM062X) =  -474.447115171     A.U. after   15 cycles
 SCF Done:  E(UM062X) =  -474.447115244     A.U. after   10 cycles
 Optimization completed.
    -- Stationary point found.

                          Input orientation:
 ---------------------------------------------------------------------
 Center     Atomic      Atomic             Coordinates (Angstroms)
 Number     Number       Type             X           Y           Z
 ---------------------------------------------------------------------
      1          8           0       -1.314392    0.000000    0.000000
      2         16           0        1.314392    0.000000    0.000000
      3          1           0       -1.341456   -0.938334   -0.241839
      4          1           0        1.192954    0.403837    1.277513
 ---------------------------------------------------------------------

 Alpha  occ. eigenvalues --  -89.97572 -19.67485  -8.33616  -6.25835  -6.25463
 Alpha  occ. eigenvalues --   -6.24910  -1.08791  -0.83290  -0.52773  -0.49229
 Alpha  occ. eigenvalues --   -0.39925  -0.38501  -0.35047
 Alpha virt. eigenvalues --   -0.17167   0.01601   0.04042   0.04734   0.05637
 Alpha virt. eigenvalues --    0.07410   0.14799   0.19493   0.20016   0.21396
 Alpha virt. eigenvalues --    0.26583   0.31255   0.34047   0.35489   0.40040

  Beta  occ. eigenvalues --  -89.97572 -19.67485  -8.33616  -6.25835  -6.25463
  Beta  occ. eigenvalues --   -6.24910  -1.08791  -0.83290  -0.52773  -0.49229
  Beta  occ. eigenvalues --   -0.39925  -0.38501  -0.35047
  Beta virt. eigenvalues --   -0.17167   0.01601   0.04042   0.04734   0.05637
  Beta virt. eigenvalues --    0.07410   0.14799   0.19493   0.20016   0.21396
  Beta virt. eigenvalues --    0.26583   0.31255   0.34047   0.35489   0.40040

 Mulliken charges and spin densities:
               1          2
     1  O   -0.429022   0.000000
     2  S    0.068226  -0.000000
     3  H    0.249234  -0.000000
     4  H    0.111561   0.000000
 Sum of Mulliken charges =   0.00000  -0.00000

 Dipole moment (field-independent basis, Debye):
    X=              1.9054    Y=             -1.2843    Z=              0.6773  Tot=              2.3956
 Quadrupole moment (field-independent basis, Debye-Ang):
   XX=            -18.2571   YY=            -19.8543   ZZ=            -18.6789
   XY=              2.9963   XZ=              2.1887   YZ=              1.8010

 Normal termination of Gaussian 16 at Thu May 15 12:59:33 2025.
