 Gaussian 16, Revision A.03,
 Gaussian 16:  ES64L-G16RevA.03 25-Dec-2016

 --------------------------------------------
 #p opt UM062X/6-311+G** nosymm int=superfine
 --------------------------------------------

 -------------------
 Title Card Required
 -------------------
 Symbolic Z-matrix:
 Charge =  0 Multiplicity = 1

 SCF Done:  E(UM062X) =  -94.4291590741     A.U. after   12 cycles
 SCF Done:  E(UM062X) =  -94.4373727498     A.U. after   11 cycles
 SCF Done:  E(UM062X) =  -94.4379223556     A.U. after   11 cycles
 SCF Done:  E(UM062X) =  -94.4366686267     A.U. after   13 cycles
 SCF Done:  E(UM062X) =  -94.4380118343     A.U. after   11 cycles
 SCF Done:  E(UM062X) =  -94.4373576846     A.U. after   12 cycles
 SCF Done:  E(UM062X) =  -94.4380401193     A.U. after   10 cycles
 SCF Done:  E(UM062X) =  -94.4380414185     A.U. after    9 cycles
 Optimization completed.
    -- Stationary point found.

                          Input orientation:
 ---------------------------------------------------------------------
 Center     Atomic      Atomic             Coordinates (Angstroms)
 Number     Number       Type             X           Y           Z
 ---------------------------------------------------------------------
      1          6           0       -0.931637    0.000000    0.000000
      2          7           0        0.931637    0.000000    0.000000
      3          1           0       -1.451261   -0.948460   -0.003325
      4          1           0        1.019266   -1.026914   -0.003698
      5          1           0       -1.359428    0.990845    0.003536
 ---------------------------------------------------------------------

 Alpha  occ. eigenvalues --  -14.81081 -10.65321  -0.89924  -0.76192  -0.55177
 Alpha  occ. eigenvalues --   -0.44917  -0.37853  -0.31283
 Alpha virt. eigenvalues --   -0.08953   0.01286   0.02183   0.04842   0.07783
 Alpha virt. eigenvalues --    0.08840   0.13070   0.15336   0.15929   0.17430
 Alpha virt. eigenvalues --    0.20865   0.23138   0.26721   0.42014   0.44455

  Beta  occ. eigenvalues --  -14.81081 -10.65321  -0.89924  -0.76192  -0.55177
  Beta  occ. eigenvalues --   -0.44917  -0.37853  -0.31283
  Beta virt. eigenvalues --   -0.08953   0.01286   0.02183   0.04842   0.07783
  Beta virt. eigenvalues --    0.08840   0.13070   0.15336   0.15929   0.17430
  Beta virt. eigenvalues --    0.20865   0.23138   0.26721   0.42014   0.44455

 Mulliken charges and spin densities:
               1          2
     1  C   -0.310694  -0.000000
     2  N   -0.275473   0.000000
     3  H    0.190443   0.000000
     4  H    0.195641  -0.000000
     5  H    0.200084   0.000000
 Sum of Mulliken charges =  -0.00000  -0.00000

 Dipole moment (field-independent basis, Debye):
    X=             -2.4996    Y=             -1.4671    Z=             -0.0052  Tot=              2.8983
 Quadrupole moment (field-independent basis, Debye-Ang):
   XX=            -12.3911   YY=            -11.3921   ZZ=            -15.4714
   XY=             -1.9208   XZ=             -0.0069   YZ=              0.0146

 Normal termination of Gaussian 16 at Mon Apr 21 18:21:55 2025.
