 Gaussian 16, Revision A.03,
 Gaussian 16:  ES64L-G16RevA.03 25-Dec-2016

 --------------------------------------------
 #p opt UM062X/6-311+G** nosymm int=superfine
 --------------------------------------------

 -------------------
 Title Card Required
 -------------------
 Symbolic Z-matrix:
 Charge = -1 Multiplicity = 2

 SCF Done:  E(UM062X) =  -50.6113424642     A.U. after   55 cycles
 SCF Done:  E(UM062X) =  -50.6194015768     A.U. after   24 cycles
 SCF Done:  E(UM062X) =  -50.6227094053     A.U. after   22 cycles
 SCF Done:  E(UM062X) =  -50.6242059910     A.U. after   20 cycles
 SCF Done:  E(UM062X) =  -50.6244377882     A.U. after   20 cycles
 SCF Done:  E(UM062X) =  -50.6244716345     A.U. after   20 cycles
 SCF Done:  E(UM062X) =  -50.6244721498     A.U. after   18 cycles
 SCF Done:  E(UM062X) =  -50.6244735503     A.U. after   20 cycles
 SCF Done:  E(UM062X) =  -50.6244739068     A.U. after   19 cycles
 SCF Done:  E(UM062X) =  -50.6244740849     A.U. after   19 cycles
 Optimization completed.
    -- Stationary point found.

                          Input orientation:
 ---------------------------------------------------------------------
 Center     Atomic      Atomic             Coordinates (Angstroms)
 Number     Number       Type             X           Y           Z
 ---------------------------------------------------------------------
      1          5           0       -1.366404    0.000000    0.000000
      2          5           0        1.366404    0.000000    0.000000
      3          1           0       -1.581915   -0.131652    1.208472
      4          1           0        1.582159    1.182524   -0.281510
 ---------------------------------------------------------------------

 Alpha  occ. eigenvalues --   -6.89463  -6.89458  -0.34672  -0.32090  -0.09377
 Alpha  occ. eigenvalues --   -0.06858  -0.00804
 Alpha virt. eigenvalues --    0.13521   0.14351   0.16017   0.17564   0.18991
 Alpha virt. eigenvalues --    0.20406   0.21886   0.22248   0.22443   0.24739
 Alpha virt. eigenvalues --    0.25521   0.34100   0.36497   0.52564   0.52652

  Beta  occ. eigenvalues --   -6.89312  -6.89311  -0.33212  -0.30783  -0.08416
  Beta  occ. eigenvalues --   -0.04515
  Beta virt. eigenvalues --    0.11399   0.12871   0.12913   0.14686   0.16292
  Beta virt. eigenvalues --    0.18663   0.20232   0.21149   0.22120   0.22756
  Beta virt. eigenvalues --    0.24430   0.28383   0.33843   0.36123   0.52528

 Mulliken charges and spin densities:
               1          2
     1  B   -0.425401   0.517167
     2  B   -0.425446   0.517279
     3  H   -0.074575  -0.017222
     4  H   -0.074578  -0.017224
 Sum of Mulliken charges =  -1.00000   1.00000

 Dipole moment (field-independent basis, Debye):
    X=              0.0002    Y=              1.1474    Z=              1.0120  Tot=              1.5299
 Quadrupole moment (field-independent basis, Debye-Ang):
   XX=            -35.2720   YY=            -22.4169   ZZ=            -22.7710
   XY=              2.4416   XZ=             -2.7684   YZ=              1.4074

 Normal termination of Gaussian 16 at Mon Apr 21 18:54:15 2025.
