 Gaussian 16, Revision A.03,
 Gaussian 16:  ES64L-G16RevA.03 25-Dec-2016

 --------------------------------------------
 #p opt UM062X/6-311+G** nosymm int=superfine
 --------------------------------------------

 -------------------
 Title Card Required
 -------------------
 Symbolic Z-matrix:
 Charge =  1 Multiplicity = 2

 SCF Done:  E(UM062X) =  -92.8235952086     A.U. after   37 cycles
 SCF Done:  E(UM062X) =  -92.8236771449     A.U. after   13 cycles
 Optimization completed.
    -- Stationary point found.

                          Input orientation:
 ---------------------------------------------------------------------
 Center     Atomic      Atomic             Coordinates (Angstroms)
 Number     Number       Type             X           Y           Z
 ---------------------------------------------------------------------
      1          6           0       -0.751540    0.000000    0.000000
      2          7           0        0.751540    0.000000    0.000000
      3          1           0       -1.857308    0.000000    0.000000
 ---------------------------------------------------------------------

 Alpha  occ. eigenvalues --  -15.24049 -11.07182  -1.31839  -1.04918  -0.83333
 Alpha  occ. eigenvalues --   -0.76336  -0.74250
 Alpha virt. eigenvalues --   -0.40552  -0.38137  -0.24986  -0.16472  -0.11040
 Alpha virt. eigenvalues --   -0.10765  -0.09070  -0.04366  -0.01534  -0.01381
 Alpha virt. eigenvalues --    0.04313   0.08401   0.28577   0.28824   0.29204

  Beta  occ. eigenvalues --  -15.22750 -11.07578  -1.25249  -1.04098  -0.80051
  Beta  occ. eigenvalues --   -0.70243
  Beta virt. eigenvalues --   -0.49619  -0.36174  -0.32207  -0.23869  -0.16687
  Beta virt. eigenvalues --   -0.11013  -0.10771  -0.09051  -0.04964  -0.02210
  Beta virt. eigenvalues --   -0.01573   0.03378   0.07239   0.27169   0.27941

 Mulliken charges and spin densities:
               1          2
     1  C    0.291393  -0.195916
     2  N    0.342207   1.196057
     3  H    0.366399  -0.000141
 Sum of Mulliken charges =   1.00000   1.00000

 Dipole moment (field-independent basis, Debye):
    X=             -3.9192    Y=             -0.0000    Z=              0.0000  Tot=              3.9192
 Quadrupole moment (field-independent basis, Debye-Ang):
   XX=             -2.4004   YY=             -9.6256   ZZ=             -9.9132
   XY=              0.0000   XZ=             -0.0000   YZ=              0.8261

 Normal termination of Gaussian 16 at Mon Apr 21 18:32:53 2025.
