 Gaussian 16, Revision A.03,
 Gaussian 16:  ES64L-G16RevA.03 25-Dec-2016

 --------------------------------------------
 #p opt UM062X/6-311+G** nosymm int=superfine
 --------------------------------------------

 -------------------
 Title Card Required
 -------------------
 Symbolic Z-matrix:
 Charge =  0 Multiplicity = 1

 SCF Done:  E(UM062X) =  -77.2495677541     A.U. after    9 cycles
 SCF Done:  E(UM062X) =  -77.2719453183     A.U. after    9 cycles
 SCF Done:  E(UM062X) =  -77.2734589714     A.U. after    8 cycles
 SCF Done:  E(UM062X) =  -77.2734596502     A.U. after    7 cycles
 Optimization completed.
    -- Stationary point found.

                          Input orientation:
 ---------------------------------------------------------------------
 Center     Atomic      Atomic             Coordinates (Angstroms)
 Number     Number       Type             X           Y           Z
 ---------------------------------------------------------------------
      1          6           0       -0.682308    0.000000    0.000000
      2          6           0        0.682308    0.000000    0.000000
      3          1           0       -1.750289   -0.000000    0.000000
      4          1           0        1.750287   -0.000000    0.000000
 ---------------------------------------------------------------------

 Alpha  occ. eigenvalues --  -10.59377 -10.59279  -0.82053  -0.66741  -0.56164
 Alpha  occ. eigenvalues --   -0.33411  -0.33411
 Alpha virt. eigenvalues --    0.01560   0.01560   0.02387   0.02486   0.07931
 Alpha virt. eigenvalues --    0.07931   0.09322   0.12686   0.12686   0.13718
 Alpha virt. eigenvalues --    0.18754   0.23823   0.35255   0.45506   0.58156

  Beta  occ. eigenvalues --  -10.59377 -10.59279  -0.82053  -0.66741  -0.56164
  Beta  occ. eigenvalues --   -0.33411  -0.33411
  Beta virt. eigenvalues --    0.01560   0.01560   0.02387   0.02486   0.07931
  Beta virt. eigenvalues --    0.07931   0.09322   0.12686   0.12686   0.13718
  Beta virt. eigenvalues --    0.18754   0.23823   0.35255   0.45506   0.58156

 Mulliken charges and spin densities:
               1          2
     1  C   -0.204230   0.000000
     2  C   -0.204230  -0.000000
     3  H    0.204230   0.000000
     4  H    0.204230   0.000000
 Sum of Mulliken charges =  -0.00000  -0.00000

 Dipole moment (field-independent basis, Debye):
    X=             -0.0000    Y=             -0.0000    Z=              0.0000  Tot=              0.0000
 Quadrupole moment (field-independent basis, Debye-Ang):
   XX=             -6.2924   YY=            -14.5605   ZZ=            -14.5605
   XY=              0.0000   XZ=              0.0000   YZ=             -0.0000

 Normal termination of Gaussian 16 at Tue Dec  3 20:06:05 2024.
