 Gaussian 16, Revision A.03,
 Gaussian 16:  ES64L-G16RevA.03 25-Dec-2016

 ---------------------------------------
 #p UM062X/6-311+G** force int=superfine
 ---------------------------------------

 -------------------
 Title Card Required
 -------------------
 Symbolic Z-matrix:
 Charge =  0 Multiplicity = 1

                         Standard orientation:
 ---------------------------------------------------------------------
 Center     Atomic      Atomic             Coordinates (Angstroms)
 Number     Number       Type             X           Y           Z
 ---------------------------------------------------------------------
      1          7           0        0.000000    0.000000    1.070048
      2          7           0        0.000000    0.000000   -1.070048
 ---------------------------------------------------------------------

 SCF Done:  E(UM062X) =  -108.970855574     A.U. after   10 cycles

 The electronic state is 1-SGG.
 Alpha  occ. eigenvalues --  -14.97771 -14.97757  -0.91732  -0.83533  -0.41635
 Alpha  occ. eigenvalues --   -0.36962  -0.36962
 Alpha virt. eigenvalues --   -0.19923  -0.19923  -0.12470   0.07432   0.09583
 Alpha virt. eigenvalues --    0.11649   0.11649   0.15502   0.15502   0.15921
 Alpha virt. eigenvalues --    0.24452   0.74042   0.74042   0.78307   0.82476

  Beta  occ. eigenvalues --  -14.97771 -14.97757  -0.91732  -0.83533  -0.41635
  Beta  occ. eigenvalues --   -0.36962  -0.36962
  Beta virt. eigenvalues --   -0.19923  -0.19923  -0.12470   0.07432   0.09583
  Beta virt. eigenvalues --    0.11649   0.11649   0.15502   0.15502   0.15921
  Beta virt. eigenvalues --    0.24452   0.74042   0.74042   0.78307   0.82476

 Mulliken charges and spin densities:
               1          2
     1  N    0.000000  -0.000000
     2  N    0.000000  -0.000000
 Sum of Mulliken charges =   0.00000  -0.00000

 Dipole moment (field-independent basis, Debye):
    X=              0.0000    Y=              0.0000    Z=              0.0000  Tot=              0.0000
 Quadrupole moment (field-independent basis, Debye-Ang):
   XX=            -12.2513   YY=            -12.2513   ZZ=            -11.0095
   XY=              0.0000   XZ=             -0.0000   YZ=              0.0000

 Optimization completed.
    -- Stationary point found.
 Normal termination of Gaussian 16 at Wed Feb 26 13:56:53 2025.
