 Gaussian 16, Revision A.03,
 Gaussian 16:  ES64L-G16RevA.03 25-Dec-2016

 --------------------------------------------
 #p opt UM062X/6-311+G** nosymm int=superfine
 --------------------------------------------

 -------------------
 Title Card Required
 -------------------
 Symbolic Z-matrix:
 Charge =  1 Multiplicity = 2

 SCF Done:  E(UM062X) =  -79.3374784703     A.U. after   10 cycles
 SCF Done:  E(UM062X) =  -79.3375691781     A.U. after    8 cycles
 Optimization completed.
    -- Stationary point found.

                          Input orientation:
 ---------------------------------------------------------------------
 Center     Atomic      Atomic             Coordinates (Angstroms)
 Number     Number       Type             X           Y           Z
 ---------------------------------------------------------------------
      1          6           0       -1.540806    0.000000    0.000000
      2          6           0        1.540806    0.000000    0.000000
      3          1           0        1.589817   -0.937353    0.542516
      4          1           0       -1.588504   -0.938465   -0.540709
      5          1           0        1.589264    0.938554    0.540486
      6          1           0        1.588576   -0.001158   -1.083082
      7          1           0       -1.589851    0.937446   -0.542354
      8          1           0       -1.589283    0.000933    1.083051
 ---------------------------------------------------------------------

 Alpha  occ. eigenvalues --  -10.84995 -10.84992  -1.03988  -1.02569  -0.74666
 Alpha  occ. eigenvalues --   -0.74665  -0.73988  -0.73988  -0.52359
 Alpha virt. eigenvalues --   -0.35544  -0.14013  -0.10264  -0.10263  -0.10163
 Alpha virt. eigenvalues --   -0.06232  -0.06232  -0.05254  -0.03259  -0.02076
 Alpha virt. eigenvalues --   -0.02073   0.01332   0.01334   0.04887   0.07666

  Beta  occ. eigenvalues --  -10.84796 -10.84796  -1.01123  -1.00165  -0.74123
  Beta  occ. eigenvalues --   -0.74122  -0.73482  -0.73482
  Beta virt. eigenvalues --   -0.32639  -0.25617  -0.15433  -0.11131  -0.11131
  Beta virt. eigenvalues --   -0.09961  -0.06425  -0.06424  -0.05440  -0.02387
  Beta virt. eigenvalues --   -0.02337  -0.02335   0.01644   0.01645   0.05838

 Mulliken charges and spin densities:
               1          2
     1  C   -0.272122   0.567264
     2  C   -0.272123   0.567266
     3  H    0.257400  -0.022417
     4  H    0.257352  -0.022418
     5  H    0.257379  -0.022418
     6  H    0.257343  -0.022430
     7  H    0.257402  -0.022417
     8  H    0.257369  -0.022430
 Sum of Mulliken charges =   1.00000   1.00000

 Dipole moment (field-independent basis, Debye):
    X=             -0.0000    Y=             -0.0000    Z=             -0.0001  Tot=              0.0001
 Quadrupole moment (field-independent basis, Debye-Ang):
   XX=              0.2821   YY=            -11.0355   ZZ=            -11.0356
   XY=             -0.0015   XZ=              0.0008   YZ=             -0.0000

 Normal termination of Gaussian 16 at Wed Nov 13 12:36:02 2024.
