 Gaussian 16, Revision A.03,
 Gaussian 16:  ES64L-G16RevA.03 25-Dec-2016

 --------------------------------------------
 #p opt UM062X/6-311+G** nosymm int=superfine
 --------------------------------------------

 -------------------
 Title Card Required
 -------------------
 Symbolic Z-matrix:
 Charge =  0 Multiplicity = 1

 SCF Done:  E(UM062X) =  -110.623722804     A.U. after   10 cycles
 SCF Done:  E(UM062X) =  -110.623789656     A.U. after    9 cycles
 SCF Done:  E(UM062X) =  -110.623918914     A.U. after    8 cycles
 Optimization completed.
    -- Stationary point found.

                          Input orientation:
 ---------------------------------------------------------------------
 Center     Atomic      Atomic             Coordinates (Angstroms)
 Number     Number       Type             X           Y           Z
 ---------------------------------------------------------------------
      1          7           0       -0.640428    0.000000    0.000000
      2          7           0        0.640428    0.000000    0.000000
      3          1           0       -0.915388   -0.993432   -0.000000
      4          1           0        0.915388    0.993432   -0.000000
 ---------------------------------------------------------------------

 Alpha  occ. eigenvalues --  -14.82009 -14.81938  -1.13710  -0.80183  -0.55985
 Alpha  occ. eigenvalues --   -0.53047  -0.45849  -0.32908
 Alpha virt. eigenvalues --   -0.02814   0.06348   0.06590   0.09557   0.11017
 Alpha virt. eigenvalues --    0.13472   0.15962   0.17528   0.19092   0.22127
 Alpha virt. eigenvalues --    0.26547   0.39551   0.56897   0.58897   0.72511

  Beta  occ. eigenvalues --  -14.82009 -14.81938  -1.13710  -0.80183  -0.55985
  Beta  occ. eigenvalues --   -0.53047  -0.45849  -0.32908
  Beta virt. eigenvalues --   -0.02814   0.06348   0.06590   0.09557   0.11017
  Beta virt. eigenvalues --    0.13472   0.15962   0.17528   0.19092   0.22127
  Beta virt. eigenvalues --    0.26547   0.39551   0.56897   0.58897   0.72511

 Mulliken charges and spin densities:
               1          2
     1  N   -0.240827  -0.000000
     2  N   -0.240827   0.000000
     3  H    0.240827   0.000000
     4  H    0.240827   0.000000
 Sum of Mulliken charges =  -0.00000  -0.00000

 Dipole moment (field-independent basis, Debye):
    X=              0.0000    Y=             -0.0000    Z=             -0.0000  Tot=              0.0000
 Quadrupole moment (field-independent basis, Debye-Ang):
   XX=            -13.4504   YY=            -10.5557   ZZ=            -12.4909
   XY=              3.7566   XZ=             -0.0000   YZ=              0.0000

 Normal termination of Gaussian 16 at Thu May 15 15:32:04 2025.
