 Gaussian 16, Revision A.03,
 Gaussian 16:  ES64L-G16RevA.03 25-Dec-2016

 --------------------------------------------
 #p opt UM062X/6-311+G** nosymm int=superfine
 --------------------------------------------

 -------------------
 Title Card Required
 -------------------
 Symbolic Z-matrix:
 Charge =  1 Multiplicity = 1

 SCF Done:  E(UM062X) =  -39.4082980569     A.U. after    9 cycles
 SCF Done:  E(UM062X) =  -39.4429545018     A.U. after    9 cycles
 SCF Done:  E(UM062X) =  -39.4616562409     A.U. after   10 cycles
 SCF Done:  E(UM062X) =  -39.4627317484     A.U. after    8 cycles
 SCF Done:  E(UM062X) =  -39.4628151493     A.U. after    6 cycles
 SCF Done:  E(UM062X) =  -39.4628380193     A.U. after    6 cycles
 Optimization completed.
    -- Stationary point found.

                          Input orientation:
 ---------------------------------------------------------------------
 Center     Atomic      Atomic             Coordinates (Angstroms)
 Number     Number       Type             X           Y           Z
 ---------------------------------------------------------------------
      1          6           0       -1.025008    0.010969   -0.018589
      2          1           0       -0.988470    1.102161   -0.007226
      3          1           0       -0.988469   -0.526540   -0.968283
      4          1           0       -1.098093   -0.542670    0.919668
 ---------------------------------------------------------------------

 Alpha  occ. eigenvalues --  -10.99901  -1.13379  -0.85171  -0.85169
 Alpha virt. eigenvalues --   -0.42066  -0.18001  -0.12354  -0.12353  -0.10522
 Alpha virt. eigenvalues --   -0.06866  -0.06864  -0.05246   0.18703   0.18703
 Alpha virt. eigenvalues --    0.22767   0.30177   0.34933   0.34934   0.44951

  Beta  occ. eigenvalues --  -10.99901  -1.13379  -0.85171  -0.85169
  Beta virt. eigenvalues --   -0.42066  -0.18001  -0.12354  -0.12353  -0.10522
  Beta virt. eigenvalues --   -0.06866  -0.06864  -0.05246   0.18703   0.18703
  Beta virt. eigenvalues --    0.22767   0.30177   0.34933   0.34934   0.44951

 Mulliken charges and spin densities:
               1          2
     1  C    0.119781  -0.000000
     2  H    0.293404   0.000000
     3  H    0.293404   0.000000
     4  H    0.293411  -0.000000
 Sum of Mulliken charges =   1.00000  -0.00000

 Dipole moment (field-independent basis, Debye):
    X=             -4.9233    Y=              0.0527    Z=             -0.0893  Tot=              4.9244
 Quadrupole moment (field-independent basis, Debye-Ang):
   XX=             -0.0025   YY=             -4.0398   ZZ=             -4.0407
   XY=             -0.0196   XZ=              0.0332   YZ=              0.0008

 Normal termination of Gaussian 16 at Thu May 15 13:17:06 2025.
