 Gaussian 16, Revision A.03,
 Gaussian 16:  ES64L-G16RevA.03 25-Dec-2016

 ---------------------------------------
 #p UM062X/6-311+G** force int=superfine
 ---------------------------------------

 -------------------
 Title Card Required
 -------------------
 Symbolic Z-matrix:
 Charge =  1 Multiplicity = 2

                         Standard orientation:
 ---------------------------------------------------------------------
 Center     Atomic      Atomic             Coordinates (Angstroms)
 Number     Number       Type             X           Y           Z
 ---------------------------------------------------------------------
      1          6           0        0.000000    0.000000    0.677263
      2          6           0        0.000000    0.000000   -0.677263
      3          1           0        0.000000    0.000000    1.761769
      4          1           0        0.000000    0.000000   -1.761769
 ---------------------------------------------------------------------

 SCF Done:  E(UM062X) =  -76.8834020992     A.U. after    9 cycles

 Unable to determine electronic state:  an orbital has unidentified symmetry.
 Alpha  occ. eigenvalues --  -10.96027 -10.95913  -1.18944  -0.97789  -0.88597
 Alpha  occ. eigenvalues --   -0.70013  -0.67515
 Alpha virt. eigenvalues --   -0.30150  -0.28129  -0.17139  -0.14424  -0.11332
 Alpha virt. eigenvalues --   -0.09963  -0.09713  -0.08125  -0.05002  -0.04608
 Alpha virt. eigenvalues --    0.02182   0.04468   0.13359   0.19656   0.30285

  Beta  occ. eigenvalues --  -10.95788 -10.95694  -1.14383  -0.96165  -0.88053
  Beta  occ. eigenvalues --   -0.65132
  Beta virt. eigenvalues --   -0.44588  -0.26464  -0.23205  -0.15811  -0.15568
  Beta virt. eigenvalues --   -0.11529  -0.10252  -0.09991  -0.07834  -0.04580
  Beta virt. eigenvalues --   -0.04067   0.01774   0.04660   0.13946   0.20553

 Mulliken charges and spin densities:
               1          2
     1  C    0.174290   0.519679
     2  C    0.174290   0.519679
     3  H    0.325710  -0.019679
     4  H    0.325710  -0.019679
 Sum of Mulliken charges =   1.00000   1.00000

 Dipole moment (field-independent basis, Debye):
    X=              0.0000    Y=              0.0000    Z=             -0.0000  Tot=              0.0000
 Quadrupole moment (field-independent basis, Debye-Ang):
   XX=             -9.9148   YY=            -11.8060   ZZ=              0.3024
   XY=              0.0000   XZ=             -0.0000   YZ=              0.0000

 Normal termination of Gaussian 16 at Tue Nov 19 13:32:21 2024.
