 Gaussian 16, Revision A.03,
 Gaussian 16:  ES64L-G16RevA.03 25-Dec-2016

 --------------------------------------------
 #p opt UM062X/6-311+G** nosymm int=superfine
 --------------------------------------------

 -------------------
 Title Card Required
 -------------------
 Symbolic Z-matrix:
 Charge = -1 Multiplicity = 2

 SCF Done:  E(UM062X) =  -51.9847306705     A.U. after   11 cycles
 SCF Done:  E(UM062X) =  -51.9860005561     A.U. after    9 cycles
 SCF Done:  E(UM062X) =  -51.9864112960     A.U. after    9 cycles
 SCF Done:  E(UM062X) =  -51.9864119280     A.U. after   11 cycles
 SCF Done:  E(UM062X) =  -51.9863675507     A.U. after   11 cycles
 SCF Done:  E(UM062X) =  -51.9864137438     A.U. after   12 cycles
 SCF Done:  E(UM062X) =  -51.9864138981     A.U. after    9 cycles
 Optimization completed.
    -- Stationary point found.

                          Input orientation:
 ---------------------------------------------------------------------
 Center     Atomic      Atomic             Coordinates (Angstroms)
 Number     Number       Type             X           Y           Z
 ---------------------------------------------------------------------
      1          5           0       -1.097274    0.000000    0.000000
      2          5           0        1.097274    0.000000    0.000000
      3          1           0       -1.702670   -1.039955    0.000264
      4          1           0        1.702670    1.039955   -0.000231
      5          1           0       -1.702670    1.039955   -0.000249
      6          1           0        1.702670   -1.039955    0.000244
 ---------------------------------------------------------------------

 Alpha  occ. eigenvalues --   -6.83929  -6.83916  -0.36919  -0.33018  -0.20814
 Alpha  occ. eigenvalues --   -0.18381  -0.07975   0.00621
 Alpha virt. eigenvalues --    0.15744   0.16784   0.16941   0.19268   0.19415
 Alpha virt. eigenvalues --    0.22477   0.22757   0.25271   0.26578   0.32572
 Alpha virt. eigenvalues --    0.33659   0.35478   0.37891   0.43403   0.51262

  Beta  occ. eigenvalues --   -6.83905  -6.83895  -0.35096  -0.31835  -0.20541
  Beta  occ. eigenvalues --   -0.18320  -0.07061
  Beta virt. eigenvalues --    0.11463   0.14286   0.15100   0.16277   0.16974
  Beta virt. eigenvalues --    0.18426   0.18812   0.21548   0.23337   0.27858
  Beta virt. eigenvalues --    0.32760   0.34136   0.35516   0.36918   0.43386

 Mulliken charges and spin densities:
               1          2
     1  B   -0.381114   0.544856
     2  B   -0.381114   0.544856
     3  H   -0.059443  -0.022428
     4  H   -0.059443  -0.022428
     5  H   -0.059443  -0.022428
     6  H   -0.059443  -0.022428
 Sum of Mulliken charges =  -1.00000   1.00000

 Dipole moment (field-independent basis, Debye):
    X=              0.0000    Y=              0.0000    Z=              0.0000  Tot=              0.0000
 Quadrupole moment (field-independent basis, Debye-Ang):
   XX=            -30.0223   YY=            -23.2792   ZZ=            -23.8165
   XY=              0.0000   XZ=              0.0000   YZ=             -0.0001

 Normal termination of Gaussian 16 at Mon Apr 21 17:17:16 2025.
