 Gaussian 16, Revision A.03,
 Gaussian 16:  ES64L-G16RevA.03 25-Dec-2016

 --------------------------------------------
 #p opt UM062X/6-311+G** nosymm int=superfine
 --------------------------------------------

 -------------------
 Title Card Required
 -------------------
 Symbolic Z-matrix:
 Charge =  0 Multiplicity = 1

 SCF Done:  E(UM062X) =  -78.4923259451     A.U. after    8 cycles
 SCF Done:  E(UM062X) =  -78.5090920900     A.U. after    8 cycles
 SCF Done:  E(UM062X) =  -78.5119915992     A.U. after    7 cycles
 SCF Done:  E(UM062X) =  -78.5121722009     A.U. after    7 cycles
 Optimization completed.
    -- Stationary point found.

                          Input orientation:
 ---------------------------------------------------------------------
 Center     Atomic      Atomic             Coordinates (Angstroms)
 Number     Number       Type             X           Y           Z
 ---------------------------------------------------------------------
      1          6           0       -0.795446    0.000000    0.000000
      2          6           0        0.795446    0.000000    0.000000
      3          1           0       -1.319762   -0.944355    0.000000
      4          1           0       -1.319908    0.944308    0.000000
      5          1           0        1.319762    0.944355   -0.000000
      6          1           0        1.319908   -0.944308   -0.000000
 ---------------------------------------------------------------------

 Alpha  occ. eigenvalues --  -10.57551 -10.57515  -0.81262  -0.68644  -0.53223
 Alpha  occ. eigenvalues --   -0.45763  -0.44451  -0.29731
 Alpha virt. eigenvalues --   -0.01475   0.03378   0.03737   0.05335   0.07796
 Alpha virt. eigenvalues --    0.08366   0.09728   0.12078   0.15848   0.16910
 Alpha virt. eigenvalues --    0.20712   0.20994   0.26792   0.29735   0.41810

  Beta  occ. eigenvalues --  -10.57551 -10.57515  -0.81262  -0.68644  -0.53223
  Beta  occ. eigenvalues --   -0.45763  -0.44451  -0.29731
  Beta virt. eigenvalues --   -0.01475   0.03378   0.03737   0.05335   0.07796
  Beta virt. eigenvalues --    0.08366   0.09728   0.12078   0.15848   0.16910
  Beta virt. eigenvalues --    0.20712   0.20994   0.26792   0.29735   0.41810

 Mulliken charges and spin densities:
               1          2
     1  C   -0.325601   0.000000
     2  C   -0.325601  -0.000000
     3  H    0.162797   0.000000
     4  H    0.162804  -0.000000
     5  H    0.162797   0.000000
     6  H    0.162804   0.000000
 Sum of Mulliken charges =  -0.00000   0.00000

 Dipole moment (field-independent basis, Debye):
    X=             -0.0000    Y=              0.0000    Z=              0.0000  Tot=              0.0000
 Quadrupole moment (field-independent basis, Debye-Ang):
   XX=            -11.9348   YY=            -12.2511   ZZ=            -16.9507
   XY=             -0.0003   XZ=             -0.0000   YZ=              0.0000

 Normal termination of Gaussian 16 at Tue Nov 19 10:44:44 2024.
