 Gaussian 16, Revision A.03,
 Gaussian 16:  ES64L-G16RevA.03 25-Dec-2016

 --------------------------------------------
 #p opt UM062X/6-311+G** nosymm int=superfine
 --------------------------------------------

 -------------------
 Title Card Required
 -------------------
 Symbolic Z-matrix:
 Charge =  0 Multiplicity = 1

 SCF Done:  E(UM062X) =  -151.454572808     A.U. after   14 cycles
 SCF Done:  E(UM062X) =  -151.460221995     A.U. after   16 cycles
 SCF Done:  E(UM062X) =  -151.461226481     A.U. after   14 cycles
 SCF Done:  E(UM062X) =  -151.461272216     A.U. after   12 cycles
 SCF Done:  E(UM062X) =  -151.461274594     A.U. after   11 cycles
 SCF Done:  E(UM062X) =  -151.461276776     A.U. after   11 cycles
 SCF Done:  E(UM062X) =  -151.461277323     A.U. after   11 cycles
 SCF Done:  E(UM062X) =  -151.461277356     A.U. after   10 cycles
 Optimization completed.
    -- Stationary point found.

                          Input orientation:
 ---------------------------------------------------------------------
 Center     Atomic      Atomic             Coordinates (Angstroms)
 Number     Number       Type             X           Y           Z
 ---------------------------------------------------------------------
      1          8           0       -0.986938    0.000000    0.000000
      2          8           0        0.986938    0.000000    0.000000
      3          1           0       -0.961421   -0.855376   -0.457884
      4          1           0        0.961301    0.700581    0.671204
 ---------------------------------------------------------------------

 Alpha  occ. eigenvalues --  -19.71937 -19.71931  -1.16017  -1.09089  -0.58162
 Alpha  occ. eigenvalues --   -0.54783  -0.45814  -0.45325  -0.41071
 Alpha virt. eigenvalues --   -0.14018   0.05614   0.09981   0.14876   0.16364
 Alpha virt. eigenvalues --    0.17538   0.19898   0.21805   0.23415   0.25482
 Alpha virt. eigenvalues --    0.34126   0.49224   0.53839   0.95004   0.99448

  Beta  occ. eigenvalues --  -19.71937 -19.71931  -1.16017  -1.09089  -0.58162
  Beta  occ. eigenvalues --   -0.54783  -0.45814  -0.45325  -0.41071
  Beta virt. eigenvalues --   -0.14018   0.05614   0.09981   0.14876   0.16364
  Beta virt. eigenvalues --    0.17538   0.19898   0.21805   0.23415   0.25482
  Beta virt. eigenvalues --    0.34126   0.49224   0.53839   0.95004   0.99448

 Mulliken charges and spin densities:
               1          2
     1  O   -0.272505  -0.000000
     2  O   -0.272481   0.000000
     3  H    0.272493  -0.000000
     4  H    0.272494   0.000000
 Sum of Mulliken charges =  -0.00000   0.00000

 Dipole moment (field-independent basis, Debye):
    X=             -0.0001    Y=             -0.2928    Z=              0.4034  Tot=              0.4985
 Quadrupole moment (field-independent basis, Debye-Ang):
   XX=            -11.7805   YY=            -10.1623   ZZ=            -11.7190
   XY=              3.1509   XZ=              2.2864   YZ=              2.3861

 Normal termination of Gaussian 16 at Mon Apr 21 21:34:43 2025.
