 Gaussian 16, Revision A.03,
 Gaussian 16:  ES64L-G16RevA.03 25-Dec-2016

 --------------------------------------------
 #p opt UM062X/6-311+G** nosymm int=superfine
 --------------------------------------------

 -------------------
 Title Card Required
 -------------------
 Symbolic Z-matrix:
 Charge =  0 Multiplicity = 1

 SCF Done:  E(UM062X) =  -94.3665588190     A.U. after   12 cycles
 SCF Done:  E(UM062X) =  -94.3762547654     A.U. after   12 cycles
 SCF Done:  E(UM062X) =  -94.3771560911     A.U. after   13 cycles
 SCF Done:  E(UM062X) =  -94.3771591093     A.U. after   13 cycles
 SCF Done:  E(UM062X) =  -94.3751984511     A.U. after   16 cycles
 SCF Done:  E(UM062X) =  -94.3772463430     A.U. after   15 cycles
 SCF Done:  E(UM062X) =  -94.3772483858     A.U. after   13 cycles
 SCF Done:  E(UM062X) =  -94.3773168400     A.U. after   15 cycles
 SCF Done:  E(UM062X) =  -94.3773177702     A.U. after   11 cycles
 Optimization completed.
    -- Stationary point found.

                          Input orientation:
 ---------------------------------------------------------------------
 Center     Atomic      Atomic             Coordinates (Angstroms)
 Number     Number       Type             X           Y           Z
 ---------------------------------------------------------------------
      1          6           0       -1.031637    0.000000    0.000000
      2          7           0        1.031637    0.000000    0.000000
      3          1           0       -1.551096   -0.949720    0.002701
      4          1           0        1.053190   -1.032464    0.002909
      5          1           0       -1.452571    0.995074   -0.002839
 ---------------------------------------------------------------------

 Alpha  occ. eigenvalues --  -14.81786 -10.66408  -0.88541  -0.77352  -0.55412
 Alpha  occ. eigenvalues --   -0.43978  -0.36774  -0.29845
 Alpha virt. eigenvalues --   -0.10970  -0.02178   0.02161   0.04729   0.06720
 Alpha virt. eigenvalues --    0.07880   0.12547   0.15033   0.15832   0.17294
 Alpha virt. eigenvalues --    0.20514   0.22496   0.26873   0.41347   0.43501

  Beta  occ. eigenvalues --  -14.81786 -10.66408  -0.88541  -0.77352  -0.55412
  Beta  occ. eigenvalues --   -0.43978  -0.36774  -0.29845
  Beta virt. eigenvalues --   -0.10970  -0.02178   0.02161   0.04729   0.06720
  Beta virt. eigenvalues --    0.07880   0.12547   0.15033   0.15832   0.17294
  Beta virt. eigenvalues --    0.20514   0.22496   0.26873   0.41347   0.43501

 Mulliken charges and spin densities:
               1          2
     1  C   -0.316377  -0.000000
     2  N   -0.277864   0.000000
     3  H    0.195209   0.000000
     4  H    0.195955  -0.000000
     5  H    0.203078   0.000000
 Sum of Mulliken charges =  -0.00000  -0.00000

 Dipole moment (field-independent basis, Debye):
    X=             -2.7379    Y=             -1.4650    Z=              0.0041  Tot=              3.1052
 Quadrupole moment (field-independent basis, Debye-Ang):
   XX=            -11.9819   YY=            -11.4712   ZZ=            -15.7400
   XY=             -1.9553   XZ=              0.0055   YZ=             -0.0121

 Normal termination of Gaussian 16 at Mon Apr 21 18:22:21 2025.
