 Gaussian 16, Revision A.03,
 Gaussian 16:  ES64L-G16RevA.03 25-Dec-2016

 ---------------------------------------
 #p UM062X/6-311+G** force int=superfine
 ---------------------------------------

 -------------------
 Title Card Required
 -------------------
 Symbolic Z-matrix:
 Charge =  1 Multiplicity = 2

                         Standard orientation:
 ---------------------------------------------------------------------
 Center     Atomic      Atomic             Coordinates (Angstroms)
 Number     Number       Type             X           Y           Z
 ---------------------------------------------------------------------
      1          7           0        0.000000    0.000000    0.730391
      2          7           0        0.000000    0.000000   -0.730391
 ---------------------------------------------------------------------

 SCF Done:  E(UM062X) =  -108.804963721     A.U. after   10 cycles

 Unable to determine electronic state:  partially filled degenerate orbitals.
 Alpha  occ. eigenvalues --  -15.37747 -15.37692  -1.49358  -1.13874  -0.87757
 Alpha  occ. eigenvalues --   -0.86754  -0.83917
 Alpha virt. eigenvalues --   -0.51340  -0.48560  -0.22561  -0.14664  -0.10076
 Alpha virt. eigenvalues --   -0.09856  -0.07955  -0.04796  -0.02906  -0.02627
 Alpha virt. eigenvalues --    0.07058   0.44070   0.45904   0.48589   0.49662

  Beta  occ. eigenvalues --  -15.37361 -15.37319  -1.44686  -1.10697  -0.85751
  Beta  occ. eigenvalues --   -0.82095
  Beta virt. eigenvalues --   -0.59666  -0.46969  -0.41661  -0.21079  -0.16534
  Beta virt. eigenvalues --   -0.11222  -0.10302  -0.08034  -0.05550  -0.03125
  Beta virt. eigenvalues --   -0.02818   0.05957   0.44455   0.45987   0.48652

 Mulliken charges and spin densities:
               1          2
     1  N    0.500000   0.500000
     2  N    0.500000   0.500000
 Sum of Mulliken charges =   1.00000   1.00000

 Dipole moment (field-independent basis, Debye):
    X=              0.0000    Y=              0.0000    Z=              0.0000  Tot=              0.0000
 Quadrupole moment (field-independent basis, Debye-Ang):
   XX=             -7.9547   YY=             -9.2986   ZZ=             -7.1184
   XY=              0.0000   XZ=             -0.0000   YZ=             -0.0000

 Optimization completed.
    -- Stationary point found.
 Normal termination of Gaussian 16 at Wed Feb 26 13:43:44 2025.
