 Gaussian 16, Revision A.03,
 Gaussian 16:  ES64L-G16RevA.03 25-Dec-2016

 --------------------------------------------
 #p opt UM062X/6-311+G** nosymm int=superfine
 --------------------------------------------

 -------------------
 Title Card Required
 -------------------
 Symbolic Z-matrix:
 Charge =  0 Multiplicity = 1

 SCF Done:  E(UM062X) =  -111.715546949     A.U. after   14 cycles
 SCF Done:  E(UM062X) =  -111.735413107     A.U. after   14 cycles
 SCF Done:  E(UM062X) =  -111.743167606     A.U. after   14 cycles
 SCF Done:  E(UM062X) =  -111.744192609     A.U. after   12 cycles
 SCF Done:  E(UM062X) =  -111.745496749     A.U. after   12 cycles
 SCF Done:  E(UM062X) =  -111.745760708     A.U. after   11 cycles
 SCF Done:  E(UM062X) =  -111.745863294     A.U. after   11 cycles
 SCF Done:  E(UM062X) =  -111.745870920     A.U. after    9 cycles
 SCF Done:  E(UM062X) =  -111.745871953     A.U. after    8 cycles
 SCF Done:  E(UM062X) =  -111.745872012     A.U. after    8 cycles
 Optimization completed.
    -- Stationary point found.

                          Input orientation:
 ---------------------------------------------------------------------
 Center     Atomic      Atomic             Coordinates (Angstroms)
 Number     Number       Type             X           Y           Z
 ---------------------------------------------------------------------
      1          7           0       -1.136540    0.000000    0.000000
      2          7           0        1.136540    0.000000    0.000000
      3          1           0       -1.135243   -0.821303   -0.613308
      4          1           0        1.135130    0.417923   -0.935956
      5          1           0       -1.135059   -0.418293    0.935790
      6          1           0        1.135185    0.821539    0.612990
 ---------------------------------------------------------------------

 Alpha  occ. eigenvalues --  -14.79543 -14.79538  -0.96351  -0.91937  -0.55551
 Alpha  occ. eigenvalues --   -0.52782  -0.41326  -0.39407  -0.34041
 Alpha virt. eigenvalues --   -0.08463   0.04564   0.07534   0.08827   0.11552
 Alpha virt. eigenvalues --    0.13357   0.13654   0.15478   0.15992   0.20704
 Alpha virt. eigenvalues --    0.22071   0.27467   0.27646   0.51375   0.51988

  Beta  occ. eigenvalues --  -14.79543 -14.79538  -0.96351  -0.91937  -0.55551
  Beta  occ. eigenvalues --   -0.52782  -0.41326  -0.39407  -0.34041
  Beta virt. eigenvalues --   -0.08463   0.04564   0.07534   0.08827   0.11552
  Beta virt. eigenvalues --    0.13357   0.13654   0.15478   0.15992   0.20704
  Beta virt. eigenvalues --    0.22071   0.27467   0.27646   0.51375   0.51988

 Mulliken charges and spin densities:
               1          2
     1  N   -0.516114   0.000000
     2  N   -0.516117  -0.000000
     3  H    0.258048  -0.000000
     4  H    0.258049   0.000000
     5  H    0.258067  -0.000000
     6  H    0.258067  -0.000000
 Sum of Mulliken charges =  -0.00000  -0.00000

 Dipole moment (field-independent basis, Debye):
    X=              0.0000    Y=             -0.0002    Z=             -0.0007  Tot=              0.0008
 Quadrupole moment (field-independent basis, Debye-Ang):
   XX=            -15.4485   YY=            -14.0202   ZZ=            -11.2923
   XY=              5.1789   XZ=             -1.3480   YZ=              0.7618

 Normal termination of Gaussian 16 at Thu May 15 14:33:13 2025.
