 Gaussian 16, Revision A.03,
 Gaussian 16:  ES64L-G16RevA.03 25-Dec-2016

 ---------------------------------------
 #p UM062X/6-311+G** force int=superfine
 ---------------------------------------

 -------------------
 Title Card Required
 -------------------
 Symbolic Z-matrix:
 Charge =  0 Multiplicity = 1

                         Standard orientation:
 ---------------------------------------------------------------------
 Center     Atomic      Atomic             Coordinates (Angstroms)
 Number     Number       Type             X           Y           Z
 ---------------------------------------------------------------------
      1          6           0       -0.048029    0.195082   -0.839136
      2          6           0        0.048029   -0.195082    0.839136
      3          1           0       -0.226042   -1.239673    0.973310
      4          1           0        0.639080   -0.445350   -1.388692
      5          1           0       -0.639078    0.445350    1.388694
      6          1           0        1.067924   -0.029255    1.180595
      7          1           0        0.226042    1.239673   -0.973310
      8          1           0       -1.067924    0.029255   -1.180597
 ---------------------------------------------------------------------

 SCF Done:  E(UM062X) =  -79.7831477193     A.U. after    8 cycles

 The electronic state is 1-A.
 Alpha  occ. eigenvalues --  -10.53285 -10.53266  -0.81771  -0.71119  -0.49161
 Alpha  occ. eigenvalues --   -0.49161  -0.42197  -0.42197  -0.38489
 Alpha virt. eigenvalues --    0.02231   0.03817   0.05605   0.05605   0.08662
 Alpha virt. eigenvalues --    0.08662   0.09131   0.13618   0.18442   0.18442
 Alpha virt. eigenvalues --    0.20688   0.21620   0.21620   0.24203   0.27675

  Beta  occ. eigenvalues --  -10.53285 -10.53266  -0.81771  -0.71119  -0.49161
  Beta  occ. eigenvalues --   -0.49161  -0.42197  -0.42197  -0.38489
  Beta virt. eigenvalues --    0.02231   0.03817   0.05605   0.05605   0.08662
  Beta virt. eigenvalues --    0.08662   0.09131   0.13618   0.18442   0.18442
  Beta virt. eigenvalues --    0.20688   0.21620   0.21620   0.24203   0.27675

 Mulliken charges and spin densities:
               1          2
     1  C   -0.484329   0.000000
     2  C   -0.484329  -0.000000
     3  H    0.161442  -0.000000
     4  H    0.161443  -0.000000
     5  H    0.161443  -0.000000
     6  H    0.161443  -0.000000
     7  H    0.161442  -0.000000
     8  H    0.161443  -0.000000
 Sum of Mulliken charges =  -0.00000  -0.00000

 Dipole moment (field-independent basis, Debye):
    X=              0.0000    Y=              0.0000    Z=              0.0000  Tot=              0.0000
 Quadrupole moment (field-independent basis, Debye-Ang):
   XX=            -14.9458   YY=            -14.9782   ZZ=            -15.5830
   XY=              0.0085   XZ=             -0.0367   YZ=              0.1486

 Normal termination of Gaussian 16 at Tue Nov 19 12:46:25 2024.
