 Gaussian 16, Revision A.03,
 Gaussian 16:  ES64L-G16RevA.03 25-Dec-2016

 --------------------------------------------
 #p opt UM062X/6-311+G** nosymm int=superfine
 --------------------------------------------

 -------------------
 Title Card Required
 -------------------
 Symbolic Z-matrix:
 Charge =  0 Multiplicity = 1

 SCF Done:  E(UM062X) =  -95.6264126521     A.U. after   13 cycles
 SCF Done:  E(UM062X) =  -95.6436237275     A.U. after   11 cycles
 SCF Done:  E(UM062X) =  -95.6544524772     A.U. after   12 cycles
 SCF Done:  E(UM062X) =  -95.6546704747     A.U. after   11 cycles
 SCF Done:  E(UM062X) =  -95.6547361308     A.U. after   12 cycles
 SCF Done:  E(UM062X) =  -95.6547566519     A.U. after   10 cycles
 SCF Done:  E(UM062X) =  -95.6547606294     A.U. after   12 cycles
 SCF Done:  E(UM062X) =  -95.6547632747     A.U. after    9 cycles
 SCF Done:  E(UM062X) =  -95.6547637610     A.U. after    8 cycles
 Optimization completed.
    -- Stationary point found.

                          Input orientation:
 ---------------------------------------------------------------------
 Center     Atomic      Atomic             Coordinates (Angstroms)
 Number     Number       Type             X           Y           Z
 ---------------------------------------------------------------------
      1          6           0       -1.480542    0.000000    0.000000
      2          7           0        1.480542    0.000000    0.000000
      3          1           0        1.467328   -1.016049    0.138625
      4          1           0       -1.531313    1.079054    0.005231
      5          1           0        1.467278    0.367152    0.957481
      6          1           0       -1.531176   -0.521589   -0.944639
      7          1           0       -1.641260   -0.545490    0.919198
 ---------------------------------------------------------------------

 Alpha  occ. eigenvalues --  -14.75125 -10.61375  -0.90276  -0.80016  -0.52159
 Alpha  occ. eigenvalues --   -0.51995  -0.50626  -0.36005  -0.27481
 Alpha virt. eigenvalues --   -0.10772   0.01697   0.04844   0.05331   0.06838
 Alpha virt. eigenvalues --    0.10185   0.13303   0.15961   0.16716   0.17432
 Alpha virt. eigenvalues --    0.19494   0.21291   0.22231   0.30426   0.41315

  Beta  occ. eigenvalues --  -14.75125 -10.61375  -0.90276  -0.80016  -0.52159
  Beta  occ. eigenvalues --   -0.51995  -0.50626  -0.36005  -0.27481
  Beta virt. eigenvalues --   -0.10772   0.01697   0.04844   0.05331   0.06838
  Beta virt. eigenvalues --    0.10185   0.13303   0.15961   0.16716   0.17432
  Beta virt. eigenvalues --    0.19494   0.21291   0.22231   0.30426   0.41315

 Mulliken charges and spin densities:
               1          2
     1  C   -0.428571   0.000001
     2  N   -0.595006  -0.000001
     3  H    0.220364   0.000000
     4  H    0.199459  -0.000000
     5  H    0.220362   0.000000
     6  H    0.199492  -0.000000
     7  H    0.183899  -0.000000
 Sum of Mulliken charges =  -0.00000   0.00000

 Dipole moment (field-independent basis, Debye):
    X=             -2.7138    Y=             -0.9692    Z=              1.6372  Tot=              3.3143
 Quadrupole moment (field-independent basis, Debye-Ang):
   XX=            -15.2380   YY=            -13.3574   ZZ=            -14.1626
   XY=             -1.5820   XZ=              2.6721   YZ=              0.7340

 Normal termination of Gaussian 16 at Mon Apr 21 18:13:39 2025.
