 Gaussian 16, Revision A.03,
 Gaussian 16:  ES64L-G16RevA.03 25-Dec-2016

 --------------------------------------------
 #p opt UM062X/6-311+G** nosymm int=superfine
 --------------------------------------------

 -------------------
 Title Card Required
 -------------------
 Symbolic Z-matrix:
 Charge =  1 Multiplicity = 2

 SCF Done:  E(UM062X) =  -579.697117022     A.U. after   18 cycles
 SCF Done:  E(UM062X) =  -579.697818469     A.U. after   16 cycles
 SCF Done:  E(UM062X) =  -579.699796042     A.U. after   17 cycles
 SCF Done:  E(UM062X) =  -579.701021851     A.U. after   16 cycles
 SCF Done:  E(UM062X) =  -579.702165823     A.U. after   15 cycles
 SCF Done:  E(UM062X) =  -579.704288333     A.U. after   16 cycles
 SCF Done:  E(UM062X) =  -579.704944651     A.U. after   14 cycles
 SCF Done:  E(UM062X) =  -579.705050553     A.U. after   13 cycles
 SCF Done:  E(UM062X) =  -579.705062454     A.U. after   11 cycles
 SCF Done:  E(UM062X) =  -579.705062770     A.U. after   10 cycles
 Optimization completed.
    -- Stationary point found.

                          Input orientation:
 ---------------------------------------------------------------------
 Center     Atomic      Atomic             Coordinates (Angstroms)
 Number     Number       Type             X           Y           Z
 ---------------------------------------------------------------------
      1         14           0       -1.452975    0.000000    0.000000
      2         14           0        1.452975    0.000000    0.000000
      3          1           0       -1.198778   -1.492591    0.000034
      4          1           0        2.939579    0.072165    0.000004
 ---------------------------------------------------------------------

 Alpha  occ. eigenvalues --  -67.28714 -67.27544  -5.82860  -5.81756  -4.13860
 Alpha  occ. eigenvalues --   -4.13681  -4.13214  -4.13167  -4.12964  -4.12282
 Alpha  occ. eigenvalues --   -0.80087  -0.75585  -0.56791  -0.53127  -0.44094
 Alpha virt. eigenvalues --   -0.29172  -0.28899  -0.26783  -0.12787  -0.10160
 Alpha virt. eigenvalues --   -0.09336  -0.08441  -0.07915  -0.06997  -0.05621
 Alpha virt. eigenvalues --   -0.05582  -0.02992  -0.00192   0.12289   0.13177

  Beta  occ. eigenvalues --  -67.28646 -67.27057  -5.82851  -5.81577  -4.13703
  Beta  occ. eigenvalues --   -4.13652  -4.13201  -4.12833  -4.12108  -4.11801
  Beta  occ. eigenvalues --   -0.78190  -0.73903  -0.55815  -0.52749
  Beta virt. eigenvalues --   -0.29815  -0.28082  -0.26007  -0.24575  -0.14428
  Beta virt. eigenvalues --   -0.10505  -0.10083  -0.08284  -0.07586  -0.07502
  Beta virt. eigenvalues --   -0.05224  -0.04315  -0.04053  -0.00319   0.11419

 Mulliken charges and spin densities:
               1          2
     1  Si   0.723985   0.165533
     2  Si   0.317775   0.855935
     3  H   -0.089478  -0.005814
     4  H    0.047718  -0.015655
 Sum of Mulliken charges =   1.00000   1.00000

 Dipole moment (field-independent basis, Debye):
    X=              0.2506    Y=             -0.4098    Z=              0.0000  Tot=              0.4803
 Quadrupole moment (field-independent basis, Debye-Ang):
   XX=             -8.1562   YY=            -23.4105   ZZ=            -23.7760
   XY=              1.2454   XZ=             -0.0000   YZ=             -0.0000

 Normal termination of Gaussian 16 at Mon Apr 21 20:38:19 2025.
