 Gaussian 16, Revision A.03,
 Gaussian 16:  ES64L-G16RevA.03 25-Dec-2016

 --------------------------------------------
 #p opt UM062X/6-311+G** nosymm int=superfine
 --------------------------------------------

 -------------------
 Title Card Required
 -------------------
 Symbolic Z-matrix:
 Charge =  0 Multiplicity = 3

 SCF Done:  E(UM062X) =  -50.5218360486     A.U. after   11 cycles
 SCF Done:  E(UM062X) =  -50.5229508882     A.U. after   12 cycles
 SCF Done:  E(UM062X) =  -50.5229611743     A.U. after   13 cycles
 Optimization completed on the basis of negligible forces.
    -- Stationary point found.

                          Input orientation:
 ---------------------------------------------------------------------
 Center     Atomic      Atomic             Coordinates (Angstroms)
 Number     Number       Type             X           Y           Z
 ---------------------------------------------------------------------
      1          5           0       -1.403410    0.000000    0.000000
      2          5           0        1.403410    0.000000    0.000000
      3          1           0       -2.612505   -0.000082    0.000007
      4          1           0        2.612505    0.000082   -0.000005
 ---------------------------------------------------------------------

 Alpha  occ. eigenvalues --   -7.13322  -7.13320  -0.56559  -0.55588  -0.36675
 Alpha  occ. eigenvalues --   -0.24648  -0.19469
 Alpha virt. eigenvalues --   -0.07109  -0.07046  -0.03685   0.02644   0.02688
 Alpha virt. eigenvalues --    0.05966   0.07133   0.07215   0.08081   0.08082
 Alpha virt. eigenvalues --    0.12306   0.19916   0.23415   0.37081   0.39326

  Beta  occ. eigenvalues --   -7.12368  -7.12366  -0.52959  -0.52410  -0.28497
  Beta virt. eigenvalues --   -0.05123  -0.04602  -0.04128  -0.01342  -0.00983
  Beta virt. eigenvalues --    0.01580   0.02924   0.06670   0.06965   0.07615
  Beta virt. eigenvalues --    0.08953   0.10248   0.10409   0.21393   0.24695

 Mulliken charges and spin densities:
               1          2
     1  B   -0.063716   0.907600
     2  B   -0.063716   0.907600
     3  H    0.063716   0.092400
     4  H    0.063716   0.092400
 Sum of Mulliken charges =  -0.00000   2.00000

 Dipole moment (field-independent basis, Debye):
    X=             -0.0000    Y=              0.0000    Z=              0.0000  Tot=              0.0000
 Quadrupole moment (field-independent basis, Debye-Ang):
   XX=            -11.4718   YY=            -13.3822   ZZ=            -17.3729
   XY=              0.0002   XZ=             -0.0000   YZ=             -0.3008

 1\1\GINC-NODE06\FOpt\UM062X\6-311+G(d,p)\B2H2(3)\SZHAO\21-Apr-2025\0\\
 #p opt UM062X/6-311+G** nosymm int=superfine\\Title Card Required\\0,3
 \B,-1.40341047,0.,0.\B,1.40341047,0.,0.\H,-2.6125050089,-0.0000824044,
 0.0000072005\H,2.612504998,0.0000824057,-0.0000051431\\Version=ES64L-G
 16RevA.03\HF=-50.5229612\S2=2.009144\S2-1=0.\S2A=2.00001\RMSD=7.751e-0
 9\RMSF=2.658e-06\Dipole=0.,0.,0.000001\Quadrupole=1.9358875,0.5155433,
 -2.4514308,0.0001743,-0.0000131,-0.2236389\PG=C*V [C*(H1B1B1H1)]\\@

 Normal termination of Gaussian 16 at Mon Apr 21 17:28:27 2025.
