 Gaussian 16, Revision A.03,
 Gaussian 16:  ES64L-G16RevA.03 25-Dec-2016

 --------------------------------------------
 #p opt UM062X/6-311+G** nosymm int=superfine
 --------------------------------------------

 -------------------
 Title Card Required
 -------------------
 Symbolic Z-matrix:
 Charge =  0 Multiplicity = 1

 SCF Done:  E(UM062X) =  -83.1468919085     A.U. after   10 cycles
 SCF Done:  E(UM062X) =  -83.1572416317     A.U. after    9 cycles
 SCF Done:  E(UM062X) =  -83.1580514058     A.U. after    8 cycles
 SCF Done:  E(UM062X) =  -83.1580526027     A.U. after    7 cycles
 Optimization completed.
    -- Stationary point found.

                          Input orientation:
 ---------------------------------------------------------------------
 Center     Atomic      Atomic             Coordinates (Angstroms)
 Number     Number       Type             X           Y           Z
 ---------------------------------------------------------------------
      1          5           0       -1.252429    0.000000    0.000000
      2          7           0        1.252429    0.000000    0.000000
      3          1           0        1.605510   -0.949523    0.000001
      4          1           0       -1.333645   -0.593831    1.028517
      5          1           0        1.605380    0.474824   -0.822334
      6          1           0        1.605368    0.474822    0.822341
      7          1           0       -1.333651    1.187636    0.000013
      8          1           0       -1.333653   -0.593810   -1.028529
 ---------------------------------------------------------------------

 Alpha  occ. eigenvalues --  -14.75792  -7.01943  -0.98569  -0.56476  -0.56475
 Alpha  occ. eigenvalues --   -0.55648  -0.37737  -0.37736  -0.37090
 Alpha virt. eigenvalues --   -0.00023   0.02642   0.04793   0.04793   0.07681
 Alpha virt. eigenvalues --    0.09076   0.11073   0.11073   0.16743   0.16744
 Alpha virt. eigenvalues --    0.17811   0.20521   0.20521   0.23336   0.30103

  Beta  occ. eigenvalues --  -14.75792  -7.01943  -0.98569  -0.56476  -0.56475
  Beta  occ. eigenvalues --   -0.55648  -0.37737  -0.37736  -0.37090
  Beta virt. eigenvalues --   -0.00023   0.02642   0.04793   0.04793   0.07681
  Beta virt. eigenvalues --    0.09076   0.11073   0.11073   0.16743   0.16744
  Beta virt. eigenvalues --    0.17811   0.20521   0.20521   0.23336   0.30103

 Mulliken charges and spin densities:
               1          2
     1  B    0.006881  -0.000000
     2  N   -0.741492   0.000000
     3  H    0.267456  -0.000000
     4  H   -0.022586   0.000000
     5  H    0.267457  -0.000000
     6  H    0.267458  -0.000000
     7  H   -0.022589  -0.000000
     8  H   -0.022585   0.000000
 Sum of Mulliken charges =  -0.00000  -0.00000

 Dipole moment (field-independent basis, Debye):
    X=              3.0584    Y=              0.0002    Z=              0.0000  Tot=              3.0584
 Quadrupole moment (field-independent basis, Debye-Ang):
   XX=            -13.2347   YY=            -15.8440   ZZ=            -15.8441
   XY=             -0.0000   XZ=             -0.0000   YZ=              0.0000

 Normal termination of Gaussian 16 at Mon Apr 21 17:37:10 2025.
