 Gaussian 16, Revision A.03,
 Gaussian 16:  ES64L-G16RevA.03 25-Dec-2016

 --------------------------------------------
 #p opt UM062X/6-311+G** nosymm int=superfine
 --------------------------------------------

 -------------------
 Title Card Required
 -------------------
 Symbolic Z-matrix:
 Charge =  1 Multiplicity = 2

 SCF Done:  E(UM062X) =  -79.3383917786     A.U. after   10 cycles
 SCF Done:  E(UM062X) =  -79.3384628232     A.U. after    8 cycles
 Optimization completed.
    -- Stationary point found.

                          Input orientation:
 ---------------------------------------------------------------------
 Center     Atomic      Atomic             Coordinates (Angstroms)
 Number     Number       Type             X           Y           Z
 ---------------------------------------------------------------------
      1          6           0       -1.526539    0.000000    0.000000
      2          6           0        1.526539    0.000000    0.000000
      3          1           0        1.576634   -0.937303    0.542485
      4          1           0       -1.575338   -0.938415   -0.540678
      5          1           0        1.576088    0.938504    0.540456
      6          1           0        1.575389   -0.001157   -1.083025
      7          1           0       -1.576667    0.937395   -0.542324
      8          1           0       -1.576089    0.000932    1.082993
 ---------------------------------------------------------------------

 Alpha  occ. eigenvalues --  -10.85034 -10.85031  -1.04075  -1.02583  -0.74730
 Alpha  occ. eigenvalues --   -0.74729  -0.74012  -0.74012  -0.52559
 Alpha virt. eigenvalues --   -0.35419  -0.14068  -0.10282  -0.10282  -0.10155
 Alpha virt. eigenvalues --   -0.06230  -0.06230  -0.05305  -0.03252  -0.02157
 Alpha virt. eigenvalues --   -0.02155   0.01342   0.01344   0.04954   0.07645

  Beta  occ. eigenvalues --  -10.84836 -10.84836  -1.01193  -1.00183  -0.74181
  Beta  occ. eigenvalues --   -0.74181  -0.73506  -0.73506
  Beta virt. eigenvalues --   -0.32652  -0.25539  -0.15431  -0.11130  -0.11130
  Beta virt. eigenvalues --   -0.09945  -0.06433  -0.06433  -0.05472  -0.02405
  Beta virt. eigenvalues --   -0.02403  -0.02385   0.01656   0.01658   0.05897

 Mulliken charges and spin densities:
               1          2
     1  C   -0.272557   0.567790
     2  C   -0.272558   0.567792
     3  H    0.257547  -0.022591
     4  H    0.257498  -0.022591
     5  H    0.257525  -0.022592
     6  H    0.257485  -0.022608
     7  H    0.257548  -0.022591
     8  H    0.257511  -0.022608
 Sum of Mulliken charges =   1.00000   1.00000

 Dipole moment (field-independent basis, Debye):
    X=             -0.0000    Y=             -0.0000    Z=             -0.0001  Tot=              0.0001
 Quadrupole moment (field-independent basis, Debye-Ang):
   XX=              0.0644   YY=            -11.0315   ZZ=            -11.0316
   XY=             -0.0014   XZ=              0.0008   YZ=             -0.0000

 Normal termination of Gaussian 16 at Wed Nov 13 12:35:42 2024.
