 Gaussian 16, Revision A.03,
 Gaussian 16:  ES64L-G16RevA.03 25-Dec-2016

 --------------------------------------------
 #p opt UM062X/6-311+G** nosymm int=superfine
 --------------------------------------------

 -------------------
 Title Card Required
 -------------------
 Symbolic Z-matrix:
 Charge =  0 Multiplicity = 1

 SCF Done:  E(UM062X) =  -77.1227091174     A.U. after    9 cycles
 SCF Done:  E(UM062X) =  -77.1624245110     A.U. after    9 cycles
 SCF Done:  E(UM062X) =  -77.1923309696     A.U. after    9 cycles
 SCF Done:  E(UM062X) =  -77.1925107549     A.U. after    8 cycles
 Optimization completed.
    -- Stationary point found.

                          Input orientation:
 ---------------------------------------------------------------------
 Center     Atomic      Atomic             Coordinates (Angstroms)
 Number     Number       Type             X           Y           Z
 ---------------------------------------------------------------------
      1          6           0       -0.760115    0.000000    0.000000
      2          6           0        0.760115    0.000000    0.000000
      3          1           0       -1.831971   -0.000000    0.000000
      4          1           0        1.831961   -0.000000    0.000000
 ---------------------------------------------------------------------

 Alpha  occ. eigenvalues --  -10.62879 -10.62828  -0.79599  -0.68287  -0.54963
 Alpha  occ. eigenvalues --   -0.31708  -0.31708
 Alpha virt. eigenvalues --   -0.01495  -0.01495   0.01722   0.02387   0.08184
 Alpha virt. eigenvalues --    0.08184   0.09404   0.10163   0.11671   0.11671
 Alpha virt. eigenvalues --    0.18097   0.23226   0.31022   0.46206   0.58711

  Beta  occ. eigenvalues --  -10.62879 -10.62828  -0.79599  -0.68287  -0.54963
  Beta  occ. eigenvalues --   -0.31708  -0.31708
  Beta virt. eigenvalues --   -0.01495  -0.01495   0.01722   0.02387   0.08184
  Beta virt. eigenvalues --    0.08184   0.09404   0.10163   0.11671   0.11671
  Beta virt. eigenvalues --    0.18097   0.23226   0.31022   0.46206   0.58711

 Mulliken charges and spin densities:
               1          2
     1  C   -0.226824  -0.000000
     2  C   -0.226825   0.000000
     3  H    0.226826  -0.000000
     4  H    0.226823  -0.000000
 Sum of Mulliken charges =  -0.00000  -0.00000

 Dipole moment (field-independent basis, Debye):
    X=             -0.0000    Y=             -0.0000    Z=              0.0000  Tot=              0.0000
 Quadrupole moment (field-independent basis, Debye-Ang):
   XX=             -5.6891   YY=            -15.1817   ZZ=            -15.1817
   XY=              0.0000   XZ=              0.0000   YZ=             -0.0000

 Normal termination of Gaussian 16 at Tue Dec  3 20:09:45 2024.
