 Gaussian 16, Revision A.03,
 Gaussian 16:  ES64L-G16RevA.03 25-Dec-2016

 --------------------------------------------
 #p opt UM062X/6-311+G** nosymm int=superfine
 --------------------------------------------

 -------------------
 Title Card Required
 -------------------
 Symbolic Z-matrix:
 Charge =  0 Multiplicity = 1

 SCF Done:  E(UM062X) =  -92.8856579521     A.U. after   14 cycles
 SCF Done:  E(UM062X) =  -92.8875002978     A.U. after   10 cycles
 SCF Done:  E(UM062X) =  -92.8875101293     A.U. after    9 cycles
 Optimization completed.
    -- Stationary point found.

                          Input orientation:
 ---------------------------------------------------------------------
 Center     Atomic      Atomic             Coordinates (Angstroms)
 Number     Number       Type             X           Y           Z
 ---------------------------------------------------------------------
      1          6           0       -1.272395    0.000000    0.000000
      2          7           0        1.272395    0.000000    0.000000
      3          1           0       -2.395971   -0.000000    0.000000
 ---------------------------------------------------------------------

 Alpha  occ. eigenvalues --  -14.85287 -10.74887  -0.80002  -0.77818  -0.44112
 Alpha  occ. eigenvalues --   -0.29202  -0.29202
 Alpha virt. eigenvalues --   -0.15728  -0.15728  -0.08875   0.00804   0.07044
 Alpha virt. eigenvalues --    0.07143   0.07143   0.13221   0.17030   0.17030
 Alpha virt. eigenvalues --    0.18042   0.25906   0.44225   0.53075   0.53075

  Beta  occ. eigenvalues --  -14.85287 -10.74887  -0.80002  -0.77818  -0.44112
  Beta  occ. eigenvalues --   -0.29202  -0.29202
  Beta virt. eigenvalues --   -0.15728  -0.15728  -0.08875   0.00804   0.07044
  Beta virt. eigenvalues --    0.07143   0.07143   0.13221   0.17030   0.17030
  Beta virt. eigenvalues --    0.18042   0.25906   0.44225   0.53075   0.53075

 Mulliken charges and spin densities:
               1          2
     1  C   -0.045556   0.000000
     2  N   -0.146154  -0.000000
     3  H    0.191710  -0.000000
 Sum of Mulliken charges =  -0.00000  -0.00000

 Dipole moment (field-independent basis, Debye):
    X=             -4.1913    Y=             -0.0000    Z=             -0.0000  Tot=              4.1913
 Quadrupole moment (field-independent basis, Debye-Ang):
   XX=             -5.9130   YY=            -14.2729   ZZ=            -14.2729
   XY=              0.0000   XZ=              0.0000   YZ=              0.0000

 Normal termination of Gaussian 16 at Mon Apr 21 18:33:39 2025.
