 Gaussian 16, Revision A.03,
 Gaussian 16:  ES64L-G16RevA.03 25-Dec-2016

 --------------------------------------------
 #p opt UM062X/6-311+G** nosymm int=superfine
 --------------------------------------------

 -------------------
 Title Card Required
 -------------------
 Symbolic Z-matrix:
 Charge =  1 Multiplicity = 2

 SCF Done:  E(UM062X) =  -76.3750855490     A.U. after    9 cycles
 SCF Done:  E(UM062X) =  -76.5057036372     A.U. after    9 cycles
 SCF Done:  E(UM062X) =  -76.5482581908     A.U. after   10 cycles
 SCF Done:  E(UM062X) =  -76.5536273108     A.U. after    9 cycles
 SCF Done:  E(UM062X) =  -76.5536300895     A.U. after    7 cycles
 Optimization completed.
    -- Stationary point found.

                          Input orientation:
 ---------------------------------------------------------------------
 Center     Atomic      Atomic             Coordinates (Angstroms)
 Number     Number       Type             X           Y           Z
 ---------------------------------------------------------------------
      1          6           0       -0.459793    0.000000    0.000000
      2          6           0        0.459793    0.000000    0.000000
      3          1           0       -1.530669    0.000000   -0.000000
      4          1           0        1.530669   -0.000000   -0.000000
 ---------------------------------------------------------------------

 Alpha  occ. eigenvalues --  -10.90916 -10.88160  -1.33515  -0.94588  -0.91695
 Alpha  occ. eigenvalues --   -0.85388  -0.81663
 Alpha virt. eigenvalues --   -0.17540  -0.15946  -0.14801  -0.13597  -0.11981
 Alpha virt. eigenvalues --   -0.11716  -0.11372  -0.02863  -0.02027  -0.01536
 Alpha virt. eigenvalues --    0.02520   0.04053   0.16934   0.21870   0.24655

  Beta  occ. eigenvalues --  -10.90499 -10.87853  -1.27161  -0.93080  -0.90747
  Beta  occ. eigenvalues --   -0.78996
  Beta virt. eigenvalues --   -0.53916  -0.15505  -0.15018  -0.14128  -0.13240
  Beta virt. eigenvalues --   -0.11887  -0.11866  -0.11429  -0.01482  -0.01130
  Beta virt. eigenvalues --   -0.00385   0.02849   0.04534   0.17431   0.22251

 Mulliken charges and spin densities:
               1          2
     1  C    0.247984   0.522058
     2  C    0.247984   0.522058
     3  H    0.252016  -0.022058
     4  H    0.252016  -0.022058
 Sum of Mulliken charges =   1.00000   1.00000

 Dipole moment (field-independent basis, Debye):
    X=             -0.0000    Y=             -0.0000    Z=             -0.0000  Tot=              0.0000
 Quadrupole moment (field-independent basis, Debye-Ang):
   XX=             -2.4480   YY=             -9.6794   ZZ=             -9.0344
   XY=             -0.0000   XZ=              0.0000   YZ=             -0.6607

 Normal termination of Gaussian 16 at Tue Nov 19 12:46:52 2024.
