 Gaussian 16, Revision A.03,
 Gaussian 16:  ES64L-G16RevA.03 25-Dec-2016

 --------------------------------------------
 #p opt UM062X/6-311+G** nosymm int=superfine
 --------------------------------------------

 -------------------
 Title Card Required
 -------------------
 Symbolic Z-matrix:
 Charge = -1 Multiplicity = 2

 SCF Done:  E(UM062X) =  -53.2184625215     A.U. after   11 cycles
 SCF Done:  E(UM062X) =  -53.2204617454     A.U. after   10 cycles
 SCF Done:  E(UM062X) =  -53.2208761515     A.U. after   10 cycles
 SCF Done:  E(UM062X) =  -53.2208770512     A.U. after    8 cycles
 Optimization completed.
    -- Stationary point found.

                          Input orientation:
 ---------------------------------------------------------------------
 Center     Atomic      Atomic             Coordinates (Angstroms)
 Number     Number       Type             X           Y           Z
 ---------------------------------------------------------------------
      1          5           0       -1.565672    0.000000    0.000000
      2          5           0        1.565672    0.000000    0.000000
      3          1           0        1.674766   -1.195059   -0.000012
      4          1           0       -1.674849   -0.597509    1.034954
      5          1           0        1.674988    0.597527   -1.034930
      6          1           0        1.674808    0.597495    1.034966
      7          1           0       -1.674773    1.195059    0.000001
      8          1           0       -1.674940   -0.597514   -1.034942
 ---------------------------------------------------------------------

 Alpha  occ. eigenvalues --   -6.82813  -6.82811  -0.39197  -0.37337  -0.20667
 Alpha  occ. eigenvalues --   -0.20667  -0.19627  -0.19627  -0.00130
 Alpha virt. eigenvalues --    0.14703   0.17211   0.17626   0.17626   0.18891
 Alpha virt. eigenvalues --    0.18891   0.21944   0.22492   0.22798   0.32960
 Alpha virt. eigenvalues --    0.32960   0.36209   0.36209   0.38831   0.40060

  Beta  occ. eigenvalues --   -6.82767  -6.82766  -0.37035  -0.35823  -0.20349
  Beta  occ. eigenvalues --   -0.20349  -0.19462  -0.19462
  Beta virt. eigenvalues --    0.13502   0.14570   0.16640   0.16641   0.16641
  Beta virt. eigenvalues --    0.18445   0.18445   0.23503   0.24053   0.27876
  Beta virt. eigenvalues --    0.32428   0.32428   0.36104   0.36104   0.39037

 Mulliken charges and spin densities:
               1          2
     1  B   -0.297831   0.598655
     2  B   -0.297831   0.598655
     3  H   -0.067373  -0.032869
     4  H   -0.067396  -0.032892
     5  H   -0.067403  -0.032893
     6  H   -0.067394  -0.032892
     7  H   -0.067373  -0.032869
     8  H   -0.067400  -0.032893
 Sum of Mulliken charges =  -1.00000   1.00000

 Dipole moment (field-independent basis, Debye):
    X=              0.0000    Y=             -0.0000    Z=              0.0000  Tot=              0.0000
 Quadrupole moment (field-independent basis, Debye-Ang):
   XX=            -36.8241   YY=            -24.1301   ZZ=            -24.1302
   XY=             -0.0001   XZ=              0.0000   YZ=              0.0000

 Normal termination of Gaussian 16 at Mon Apr 21 16:53:41 2025.
