 Gaussian 16, Revision A.03,
 Gaussian 16:  ES64L-G16RevA.03 25-Dec-2016

 --------------------------------------------
 #p opt UM062X/6-311+G** nosymm int=superfine
 --------------------------------------------

 -------------------
 Title Card Required
 -------------------
 Symbolic Z-matrix:
 Charge =  0 Multiplicity = 1

 SCF Done:  E(UM062X) =  -382.348484621     A.U. after   11 cycles
 SCF Done:  E(UM062X) =  -382.354174850     A.U. after   10 cycles
 SCF Done:  E(UM062X) =  -382.355671062     A.U. after   10 cycles
 SCF Done:  E(UM062X) =  -382.355690308     A.U. after    8 cycles
 SCF Done:  E(UM062X) =  -382.355697136     A.U. after    8 cycles
 SCF Done:  E(UM062X) =  -382.355697518     A.U. after    8 cycles
 SCF Done:  E(UM062X) =  -382.355697589     A.U. after    7 cycles
 Optimization completed.
    -- Stationary point found.

                          Input orientation:
 ---------------------------------------------------------------------
 Center     Atomic      Atomic             Coordinates (Angstroms)
 Number     Number       Type             X           Y           Z
 ---------------------------------------------------------------------
      1          6           0       -1.306264    0.000000    0.000000
      2         15           0        1.306264    0.000000    0.000000
      3          1           0        1.315393   -1.417959    0.026742
      4          1           0       -1.520260    1.035502    0.230571
      5          1           0        1.315308    0.085528    1.415607
      6          1           0       -1.520241   -0.309895   -1.014597
      7          1           0       -1.536094   -0.718386    0.776217
 ---------------------------------------------------------------------

 Alpha  occ. eigenvalues --  -78.03031 -10.56910  -6.85360  -4.96890  -4.96850
 Alpha  occ. eigenvalues --   -4.96648  -0.77599  -0.69135  -0.48680  -0.48651
 Alpha  occ. eigenvalues --   -0.43475  -0.35033  -0.29245
 Alpha virt. eigenvalues --   -0.04123   0.01598   0.04007   0.04500   0.04985
 Alpha virt. eigenvalues --    0.06435   0.06727   0.07605   0.07705   0.13032
 Alpha virt. eigenvalues --    0.17549   0.18890   0.19210   0.25735   0.30196

  Beta  occ. eigenvalues --  -78.03031 -10.56910  -6.85360  -4.96890  -4.96850
  Beta  occ. eigenvalues --   -4.96648  -0.77599  -0.69135  -0.48680  -0.48651
  Beta  occ. eigenvalues --   -0.43475  -0.35033  -0.29245
  Beta virt. eigenvalues --   -0.04123   0.01598   0.04007   0.04500   0.04985
  Beta virt. eigenvalues --    0.06435   0.06727   0.07605   0.07705   0.13032
  Beta virt. eigenvalues --    0.17549   0.18890   0.19210   0.25735   0.30196

 Mulliken charges and spin densities:
               1          2
     1  C   -0.557509   0.000000
     2  P   -0.015585  -0.000000
     3  H    0.014190   0.000000
     4  H    0.181800  -0.000000
     5  H    0.014198  -0.000000
     6  H    0.181811  -0.000000
     7  H    0.181096  -0.000000
 Sum of Mulliken charges =  -0.00000  -0.00000

 Dipole moment (field-independent basis, Debye):
    X=             -0.7455    Y=             -0.5068    Z=              0.5487  Tot=              1.0553
 Quadrupole moment (field-independent basis, Debye-Ang):
   XX=            -22.9267   YY=            -22.1110   ZZ=            -22.2245
   XY=             -1.0820   XZ=              1.1712   YZ=              0.7150

 Normal termination of Gaussian 16 at Mon Apr 21 18:59:23 2025.
