 Gaussian 16, Revision A.03,
 Gaussian 16:  ES64L-G16RevA.03 25-Dec-2016

 --------------------------------------------
 #p opt UM062X/6-311+G** nosymm int=superfine
 --------------------------------------------

 -------------------
 Title Card Required
 -------------------
 Symbolic Z-matrix:
 Charge =  0 Multiplicity = 1

 SCF Done:  E(UM062X) =  -76.8677572365     A.U. after   15 cycles
 SCF Done:  E(UM062X) =  -76.8683133174     A.U. after   15 cycles
 SCF Done:  E(UM062X) =  -76.8694882458     A.U. after   22 cycles
 SCF Done:  E(UM062X) =  -76.8699731524     A.U. after   16 cycles
 SCF Done:  E(UM062X) =  -76.8700636942     A.U. after   15 cycles
 SCF Done:  E(UM062X) =  -76.8700860510     A.U. after   23 cycles
 SCF Done:  E(UM062X) =  -76.8700861648     A.U. after    9 cycles
 Optimization completed.
    -- Stationary point found.

                          Input orientation:
 ---------------------------------------------------------------------
 Center     Atomic      Atomic             Coordinates (Angstroms)
 Number     Number       Type             X           Y           Z
 ---------------------------------------------------------------------
      1          6           0       -1.907625    0.000000    0.000000
      2          6           0        1.907625    0.000000    0.000000
      3          1           0       -1.732315   -0.652070    0.891386
      4          1           0        1.732654    0.653747   -0.890219
 ---------------------------------------------------------------------

 Alpha  occ. eigenvalues --  -10.67682 -10.67680  -0.73006  -0.72556  -0.39163
 Alpha  occ. eigenvalues --   -0.38965  -0.23603
 Alpha virt. eigenvalues --   -0.13004  -0.10376  -0.09618   0.03237   0.04540
 Alpha virt. eigenvalues --    0.07234   0.07289   0.09254   0.09661   0.10894
 Alpha virt. eigenvalues --    0.13881   0.18117   0.19231   0.44592   0.45351

  Beta  occ. eigenvalues --  -10.67682 -10.67680  -0.73006  -0.72556  -0.39163
  Beta  occ. eigenvalues --   -0.38965  -0.23603
  Beta virt. eigenvalues --   -0.13004  -0.10376  -0.09618   0.03237   0.04540
  Beta virt. eigenvalues --    0.07234   0.07289   0.09254   0.09661   0.10894
  Beta virt. eigenvalues --    0.13881   0.18117   0.19231   0.44592   0.45351

 Mulliken charges and spin densities:
               1          2
     1  C   -0.142671  -0.000003
     2  C   -0.142714   0.000003
     3  H    0.142695   0.000000
     4  H    0.142690  -0.000000
 Sum of Mulliken charges =   0.00000   0.00000

 Dipole moment (field-independent basis, Debye):
    X=              0.0003    Y=              0.0024    Z=              0.0018  Tot=              0.0030
 Quadrupole moment (field-independent basis, Debye-Ang):
   XX=            -17.0714   YY=            -12.9839   ZZ=            -13.7967
   XY=              3.6940   XZ=             -5.0402   YZ=              1.2873

 Normal termination of Gaussian 16 at Tue Dec  3 23:56:30 2024.
