 Gaussian 16, Revision A.03,
 Gaussian 16:  ES64L-G16RevA.03 25-Dec-2016

 --------------------------------------------
 #p opt UM062X/6-311+G** nosymm int=superfine
 --------------------------------------------

 -------------------
 Title Card Required
 -------------------
 Symbolic Z-matrix:
 Charge =  0 Multiplicity = 1

 SCF Done:  E(UM062X) =  -382.214564617     A.U. after   19 cycles
 SCF Done:  E(UM062X) =  -382.225264290     A.U. after   13 cycles
 SCF Done:  E(UM062X) =  -382.232181854     A.U. after   14 cycles
 SCF Done:  E(UM062X) =  -382.232300336     A.U. after   12 cycles
 SCF Done:  E(UM062X) =  -382.232348256     A.U. after   12 cycles
 SCF Done:  E(UM062X) =  -382.232433877     A.U. after   13 cycles
 SCF Done:  E(UM062X) =  -382.232486946     A.U. after   12 cycles
 SCF Done:  E(UM062X) =  -382.232499128     A.U. after   11 cycles
 SCF Done:  E(UM062X) =  -382.232499804     A.U. after   10 cycles
 SCF Done:  E(UM062X) =  -382.232500074     A.U. after   10 cycles
 SCF Done:  E(UM062X) =  -382.232500530     A.U. after   10 cycles
 SCF Done:  E(UM062X) =  -382.232501153     A.U. after   10 cycles
 SCF Done:  E(UM062X) =  -382.232501672     A.U. after   11 cycles
 SCF Done:  E(UM062X) =  -382.232501994     A.U. after   11 cycles
 Optimization completed.
    -- Stationary point found.

                          Input orientation:
 ---------------------------------------------------------------------
 Center     Atomic      Atomic             Coordinates (Angstroms)
 Number     Number       Type             X           Y           Z
 ---------------------------------------------------------------------
      1          6           0       -2.381264    0.000000    0.000000
      2         15           0        2.381264    0.000000    0.000000
      3          1           0        2.291206   -1.416698    0.018586
      4          1           0       -2.386838    1.054849    0.232632
      5          1           0        2.289499    0.069252    1.414986
      6          1           0       -2.387196   -0.325194   -1.030085
      7          1           0       -2.434826   -0.728357    0.796037
 ---------------------------------------------------------------------

 Alpha  occ. eigenvalues --  -78.02864 -10.59803  -6.85310  -4.96829  -4.96759
 Alpha  occ. eigenvalues --   -4.96578  -0.79310  -0.69348  -0.51526  -0.51499
 Alpha  occ. eigenvalues --   -0.43519  -0.34614  -0.22183
 Alpha virt. eigenvalues --   -0.14545   0.02046   0.03703   0.03983   0.04476
 Alpha virt. eigenvalues --    0.06029   0.06460   0.07198   0.07302   0.10728
 Alpha virt. eigenvalues --    0.15908   0.17888   0.17928   0.22344   0.30633

  Beta  occ. eigenvalues --  -78.02864 -10.59803  -6.85310  -4.96829  -4.96759
  Beta  occ. eigenvalues --   -4.96578  -0.79310  -0.69348  -0.51526  -0.51499
  Beta  occ. eigenvalues --   -0.43519  -0.34614  -0.22183
  Beta virt. eigenvalues --   -0.14545   0.02046   0.03703   0.03983   0.04476
  Beta virt. eigenvalues --    0.06029   0.06460   0.07198   0.07302   0.10728
  Beta virt. eigenvalues --    0.15908   0.17888   0.17928   0.22344   0.30633

 Mulliken charges and spin densities:
               1          2
     1  C   -0.475389   0.000000
     2  P   -0.043027  -0.000000
     3  H   -0.013295   0.000000
     4  H    0.182428  -0.000000
     5  H   -0.013297   0.000000
     6  H    0.182387  -0.000000
     7  H    0.180193  -0.000000
 Sum of Mulliken charges =  -0.00000  -0.00000

 Dipole moment (field-independent basis, Debye):
    X=             -1.9576    Y=             -0.5852    Z=              0.6228  Tot=              2.1360
 Quadrupole moment (field-independent basis, Debye-Ang):
   XX=            -22.9791   YY=            -22.4327   ZZ=            -22.5206
   XY=             -1.4426   XZ=              1.5323   YZ=              0.7069

 Normal termination of Gaussian 16 at Mon Apr 21 19:13:58 2025.
