 Gaussian 16, Revision A.03,
 Gaussian 16:  ES64L-G16RevA.03 25-Dec-2016

 ---------------------------------------
 #p UM062X/6-311+G** force int=superfine
 ---------------------------------------

 -------------------
 Title Card Required
 -------------------
 Symbolic Z-matrix:
 Charge =  1 Multiplicity = 2

                         Standard orientation:
 ---------------------------------------------------------------------
 Center     Atomic      Atomic             Coordinates (Angstroms)
 Number     Number       Type             X           Y           Z
 ---------------------------------------------------------------------
      1          6           0        0.812891    0.000027    0.021698
      2          6           0       -0.812937    0.000034   -0.021674
      3          1           0       -1.267807    0.921409    0.326860
      4          1           0        1.267653    0.921671   -0.326335
      5          1           0       -1.268008   -0.921378    0.326594
      6          1           0       -0.633742   -0.000097   -1.140242
      7          1           0        1.268061   -0.921044   -0.327311
      8          1           0        0.634122   -0.000929    1.140289
 ---------------------------------------------------------------------

 SCF Done:  E(UM062X) =  -79.3717361795     A.U. after   11 cycles

 The electronic state is 2-A.
 Alpha  occ. eigenvalues --  -10.85616 -10.85590  -1.16878  -0.99378  -0.82688
 Alpha  occ. eigenvalues --   -0.80314  -0.75211  -0.71650  -0.64386
 Alpha virt. eigenvalues --   -0.17329  -0.13563  -0.11999  -0.11627  -0.10346
 Alpha virt. eigenvalues --   -0.07646  -0.07029  -0.06471  -0.05715  -0.01823
 Alpha virt. eigenvalues --   -0.00786  -0.00426   0.02380   0.03567   0.03758

  Beta  occ. eigenvalues --  -10.85373 -10.85352  -1.13899  -0.96365  -0.79473
  Beta  occ. eigenvalues --   -0.78116  -0.73677  -0.71070
  Beta virt. eigenvalues --   -0.42149  -0.16978  -0.13346  -0.11485  -0.11469
  Beta virt. eigenvalues --   -0.09991  -0.07748  -0.06538  -0.05493  -0.04322
  Beta virt. eigenvalues --   -0.01416  -0.00372   0.00135   0.03019   0.04248

 Mulliken charges and spin densities:
               1          2
     1  C   -0.350471   0.410396
     2  C   -0.350287   0.410650
     3  H    0.276179  -0.019084
     4  H    0.276163  -0.019074
     5  H    0.276172  -0.019075
     6  H    0.298043   0.127628
     7  H    0.276168  -0.019061
     8  H    0.298033   0.127620
 Sum of Mulliken charges =   1.00000   1.00000

 Dipole moment (field-independent basis, Debye):
    X=             -0.0002    Y=             -0.0005    Z=             -0.0002  Tot=              0.0006
 Quadrupole moment (field-independent basis, Debye-Ang):
   XX=             -8.0012   YY=            -10.8473   ZZ=            -10.1370
   XY=             -0.0002   XZ=              0.1475   YZ=             -0.0004

 Normal termination of Gaussian 16 at Tue Nov 19 08:43:28 2024.
