 Gaussian 16, Revision A.03,
 Gaussian 16:  ES64L-G16RevA.03 25-Dec-2016

 --------------------------------------------
 #p opt UM062X/6-311+G** nosymm int=superfine
 --------------------------------------------

 -------------------
 Title Card Required
 -------------------
 Symbolic Z-matrix:
 Charge =  0 Multiplicity = 1

 SCF Done:  E(UM062X) =  -95.5873212240     A.U. after   16 cycles
 SCF Done:  E(UM062X) =  -95.6224438745     A.U. after   12 cycles
 SCF Done:  E(UM062X) =  -95.6561214382     A.U. after   13 cycles
 SCF Done:  E(UM062X) =  -95.6658660245     A.U. after   12 cycles
 SCF Done:  E(UM062X) =  -95.7307066742     A.U. after   11 cycles
 SCF Done:  E(UM062X) =  -95.7848888606     A.U. after   11 cycles
 SCF Done:  E(UM062X) =  -95.7967606693     A.U. after   12 cycles
 SCF Done:  E(UM062X) =  -95.7521210543     A.U. after   12 cycles
 SCF Done:  E(UM062X) =  -95.8191840614     A.U. after   10 cycles
 SCF Done:  E(UM062X) =  -95.8155151370     A.U. after   11 cycles
 SCF Done:  E(UM062X) =  -95.8278006280     A.U. after   10 cycles
 SCF Done:  E(UM062X) =  -95.8283310971     A.U. after    9 cycles
 SCF Done:  E(UM062X) =  -95.8308731162     A.U. after   11 cycles
 SCF Done:  E(UM062X) =  -95.8178359617     A.U. after   11 cycles
 SCF Done:  E(UM062X) =  -95.8338163162     A.U. after   11 cycles
 SCF Done:  E(UM062X) =  -95.8344849059     A.U. after   10 cycles
 SCF Done:  E(UM062X) =  -95.8345600320     A.U. after    9 cycles
 SCF Done:  E(UM062X) =  -95.8347147295     A.U. after   10 cycles
 SCF Done:  E(UM062X) =  -95.8347339521     A.U. after    9 cycles
 Optimization completed.
    -- Stationary point found.

                          Input orientation:
 ---------------------------------------------------------------------
 Center     Atomic      Atomic             Coordinates (Angstroms)
 Number     Number       Type             X           Y           Z
 ---------------------------------------------------------------------
      1          6           0       -0.786236   -0.000056   -0.029724
      2          7           0        0.654485   -0.000143   -0.272810
      3          1           0        1.091070    0.814854    0.140584
      4          1           0       -1.228189   -0.878310   -0.502779
      5          1           0        1.091139   -0.814606    0.141562
      6          1           0       -1.228260    0.877598   -0.503825
      7          1           0       -1.078092    0.000562    1.028180
 ---------------------------------------------------------------------

 Alpha  occ. eigenvalues --  -14.72341 -10.55089  -0.98071  -0.74957  -0.56411
 Alpha  occ. eigenvalues --   -0.50910  -0.47014  -0.43133  -0.30458
 Alpha virt. eigenvalues --    0.01500   0.04004   0.05005   0.05908   0.11209
 Alpha virt. eigenvalues --    0.13839   0.16105   0.18574   0.19637   0.21664
 Alpha virt. eigenvalues --    0.21769   0.23540   0.27285   0.29575   0.43304

  Beta  occ. eigenvalues --  -14.72341 -10.55089  -0.98071  -0.74957  -0.56411
  Beta  occ. eigenvalues --   -0.50910  -0.47014  -0.43133  -0.30458
  Beta virt. eigenvalues --    0.01500   0.04004   0.05005   0.05908   0.11209
  Beta virt. eigenvalues --    0.13839   0.16105   0.18574   0.19637   0.21664
  Beta virt. eigenvalues --    0.21769   0.23540   0.27285   0.29575   0.43304

 Mulliken charges and spin densities:
               1          2
     1  C   -0.403936  -0.000000
     2  N   -0.499808  -0.000000
     3  H    0.233639   0.000000
     4  H    0.151707   0.000000
     5  H    0.233640   0.000000
     6  H    0.151707   0.000000
     7  H    0.133051   0.000000
 Sum of Mulliken charges =  -0.00000  -0.00000

 Dipole moment (field-independent basis, Debye):
    X=             -0.2201    Y=              0.0009    Z=              1.4303  Tot=              1.4472
 Quadrupole moment (field-independent basis, Debye-Ang):
   XX=            -13.6858   YY=            -12.6386   ZZ=            -16.3318
   XY=              0.0011   XZ=              1.9204   YZ=             -0.0021

 Normal termination of Gaussian 16 at Wed Apr 16 02:07:16 2025.
