 Gaussian 16, Revision A.03,
 Gaussian 16:  ES64L-G16RevA.03 25-Dec-2016

 --------------------------------------------
 #p opt UM062X/6-311+G** nosymm int=superfine
 --------------------------------------------

 -------------------
 Title Card Required
 -------------------
 Symbolic Z-matrix:
 Charge =  0 Multiplicity = 1

 SCF Done:  E(UM062X) =  -579.901213295     A.U. after    9 cycles
 SCF Done:  E(UM062X) =  -579.905448549     A.U. after    9 cycles
 SCF Done:  E(UM062X) =  -579.905478687     A.U. after    9 cycles
 Optimization completed.
    -- Stationary point found.

                          Input orientation:
 ---------------------------------------------------------------------
 Center     Atomic      Atomic             Coordinates (Angstroms)
 Number     Number       Type             X           Y           Z
 ---------------------------------------------------------------------
      1         14           0       -1.528705    0.000000    0.000000
      2         14           0        1.528705    0.000000    0.000000
      3          1           0       -3.071396    0.000100    0.000000
      4          1           0        3.071396    0.000168   -0.000000
 ---------------------------------------------------------------------

 Alpha  occ. eigenvalues --  -67.04246 -67.04246  -5.58672  -5.58672  -3.89736
 Alpha  occ. eigenvalues --   -3.89735  -3.89292  -3.89291  -3.89209  -3.89207
 Alpha  occ. eigenvalues --   -0.55618  -0.53476  -0.37301  -0.27195  -0.20203
 Alpha virt. eigenvalues --   -0.10627  -0.08280  -0.06861   0.02164   0.03101
 Alpha virt. eigenvalues --    0.04352   0.04562   0.05546   0.06208   0.07132
 Alpha virt. eigenvalues --    0.09835   0.10489   0.22643   0.29454   0.29826

  Beta  occ. eigenvalues --  -67.04246 -67.04246  -5.58672  -5.58672  -3.89736
  Beta  occ. eigenvalues --   -3.89735  -3.89292  -3.89291  -3.89209  -3.89207
  Beta  occ. eigenvalues --   -0.55618  -0.53476  -0.37301  -0.27195  -0.20203
  Beta virt. eigenvalues --   -0.10627  -0.08280  -0.06861   0.02164   0.03101
  Beta virt. eigenvalues --    0.04352   0.04562   0.05546   0.06208   0.07132
  Beta virt. eigenvalues --    0.09835   0.10489   0.22643   0.29454   0.29826

 Mulliken charges and spin densities:
               1          2
     1  Si   0.142744   0.000000
     2  Si   0.142744  -0.000000
     3  H   -0.142744  -0.000000
     4  H   -0.142744   0.000000
 Sum of Mulliken charges =  -0.00000  -0.00000

 Dipole moment (field-independent basis, Debye):
    X=             -0.0000    Y=              0.0000    Z=              0.0000  Tot=              0.0000
 Quadrupole moment (field-independent basis, Debye-Ang):
   XX=            -33.1665   YY=            -24.0029   ZZ=            -34.9813
   XY=             -0.0001   XZ=              0.0000   YZ=             -0.0015

 Normal termination of Gaussian 16 at Mon Apr 21 21:23:30 2025.
