 Gaussian 16, Revision A.03,
 Gaussian 16:  ES64L-G16RevA.03 25-Dec-2016

 --------------------------------------------
 #p opt UM062X/6-311+G** nosymm int=superfine
 --------------------------------------------

 -------------------
 Title Card Required
 -------------------
 Symbolic Z-matrix:
 Charge =  1 Multiplicity = 2

 SCF Done:  E(UM062X) =  -76.5834673455     A.U. after   13 cycles
 SCF Done:  E(UM062X) =  -76.5837999397     A.U. after   86 cycles
 Optimization completed.
    -- Stationary point found.

                          Input orientation:
 ---------------------------------------------------------------------
 Center     Atomic      Atomic             Coordinates (Angstroms)
 Number     Number       Type             X           Y           Z
 ---------------------------------------------------------------------
      1          6           0       -2.282160    0.000000    0.000000
      2          6           0        2.282160    0.000000    0.000000
      3          1           0       -3.399669    0.000000    0.000000
      4          1           0        3.399669   -0.000000    0.000000
 ---------------------------------------------------------------------

 Alpha  occ. eigenvalues --  -10.93784 -10.93784  -0.97489  -0.97439  -0.62878
 Alpha  occ. eigenvalues --   -0.62522  -0.46768
 Alpha virt. eigenvalues --   -0.40620  -0.32555  -0.32442  -0.11759  -0.11019
 Alpha virt. eigenvalues --   -0.07280  -0.06996  -0.06289  -0.04567  -0.04269
 Alpha virt. eigenvalues --   -0.01549  -0.00038   0.05138   0.27982   0.29435

  Beta  occ. eigenvalues --  -10.93369 -10.93369  -0.95101  -0.95093  -0.61508
  Beta  occ. eigenvalues --   -0.61129
  Beta virt. eigenvalues --   -0.30682  -0.30534  -0.29064  -0.28889  -0.12154
  Beta virt. eigenvalues --   -0.10964  -0.06527  -0.06511  -0.05625  -0.03758
  Beta virt. eigenvalues --   -0.02802  -0.01780   0.01611   0.06913   0.27188

 Mulliken charges and spin densities:
               1          2
     1  C    0.279529   0.516265
     2  C    0.279529   0.516266
     3  H    0.220471  -0.016265
     4  H    0.220471  -0.016265
 Sum of Mulliken charges =   1.00000   1.00000

 Dipole moment (field-independent basis, Debye):
    X=             -0.0000    Y=              0.0000    Z=              0.0000  Tot=              0.0000
 Quadrupole moment (field-independent basis, Debye-Ang):
   XX=             32.7780   YY=            -11.4663   ZZ=             -9.4743
   XY=              0.0000   XZ=              0.0000   YZ=              0.0003

 Normal termination of Gaussian 16 at Tue Dec  3 11:37:22 2024.
