 Gaussian 16, Revision A.03,
 Gaussian 16:  ES64L-G16RevA.03 25-Dec-2016

 --------------------------------------------
 #p opt UM062X/6-311+G** nosymm int=superfine
 --------------------------------------------

 -------------------
 Title Card Required
 -------------------
 Symbolic Z-matrix:
 Charge =  0 Multiplicity = 1

 SCF Done:  E(UM062X) =  -92.9436786628     A.U. after   11 cycles
 SCF Done:  E(UM062X) =  -92.9449623604     A.U. after   11 cycles
 SCF Done:  E(UM062X) =  -92.9449659090     A.U. after    9 cycles
 Optimization completed.
    -- Stationary point found.

                          Input orientation:
 ---------------------------------------------------------------------
 Center     Atomic      Atomic             Coordinates (Angstroms)
 Number     Number       Type             X           Y           Z
 ---------------------------------------------------------------------
      1          6           0       -1.097395    0.000000    0.000000
      2          7           0        1.097395    0.000000    0.000000
      3          1           0       -2.210977   -0.000000    0.000000
 ---------------------------------------------------------------------

 Alpha  occ. eigenvalues --  -14.88444 -10.74101  -0.82668  -0.76856  -0.44171
 Alpha  occ. eigenvalues --   -0.31045  -0.31045
 Alpha virt. eigenvalues --   -0.14085  -0.14085  -0.08928   0.01349   0.06597
 Alpha virt. eigenvalues --    0.07337   0.07337   0.13255   0.16881   0.16881
 Alpha virt. eigenvalues --    0.19401   0.26615   0.45783   0.53979   0.53979

  Beta  occ. eigenvalues --  -14.88444 -10.74101  -0.82668  -0.76856  -0.44171
  Beta  occ. eigenvalues --   -0.31045  -0.31045
  Beta virt. eigenvalues --   -0.14085  -0.14085  -0.08928   0.01349   0.06597
  Beta virt. eigenvalues --    0.07337   0.07337   0.13255   0.16881   0.16881
  Beta virt. eigenvalues --    0.19401   0.26615   0.45783   0.53979   0.53979

 Mulliken charges and spin densities:
               1          2
     1  C   -0.152114  -0.000000
     2  N   -0.065359   0.000000
     3  H    0.217473   0.000000
 Sum of Mulliken charges =  -0.00000   0.00000

 Dipole moment (field-independent basis, Debye):
    X=             -3.5171    Y=              0.0000    Z=             -0.0000  Tot=              3.5171
 Quadrupole moment (field-independent basis, Debye-Ang):
   XX=             -6.4173   YY=            -14.1865   ZZ=            -14.1865
   XY=             -0.0000   XZ=              0.0000   YZ=              0.0000

 Normal termination of Gaussian 16 at Mon Apr 21 18:35:48 2025.
