 Gaussian 16, Revision A.03,
 Gaussian 16:  ES64L-G16RevA.03 25-Dec-2016

 --------------------------------------------
 #p opt UM062X/6-311+G** nosymm int=superfine
 --------------------------------------------

 -------------------
 Title Card Required
 -------------------
 Symbolic Z-matrix:
 Charge =  0 Multiplicity = 1

 SCF Done:  E(UM062X) =  -76.8608937567     A.U. after   15 cycles
 SCF Done:  E(UM062X) =  -76.8613211782     A.U. after   19 cycles
 SCF Done:  E(UM062X) =  -76.8623555333     A.U. after   16 cycles
 SCF Done:  E(UM062X) =  -76.8628964486     A.U. after   16 cycles
 SCF Done:  E(UM062X) =  -76.8629687653     A.U. after   15 cycles
 SCF Done:  E(UM062X) =  -76.8629895993     A.U. after   22 cycles
 SCF Done:  E(UM062X) =  -76.8629897810     A.U. after   14 cycles
 SCF Done:  E(UM062X) =  -76.8629898077     A.U. after   16 cycles
 Optimization completed.
    -- Stationary point found.

                          Input orientation:
 ---------------------------------------------------------------------
 Center     Atomic      Atomic             Coordinates (Angstroms)
 Number     Number       Type             X           Y           Z
 ---------------------------------------------------------------------
      1          6           0       -2.007625    0.000000    0.000000
      2          6           0        2.007625    0.000000    0.000000
      3          1           0       -1.820576   -0.652539    0.889058
      4          1           0        1.820905    0.652148   -0.889413
 ---------------------------------------------------------------------

 Alpha  occ. eigenvalues --  -10.67661 -10.67660  -0.73009  -0.72672  -0.39178
 Alpha  occ. eigenvalues --   -0.39034  -0.23175
 Alpha virt. eigenvalues --   -0.13541  -0.10341  -0.09747   0.03162   0.04463
 Alpha virt. eigenvalues --    0.07231   0.07242   0.09185   0.09589   0.10732
 Alpha virt. eigenvalues --    0.13779   0.18072   0.19093   0.45377   0.45399

  Beta  occ. eigenvalues --  -10.67661 -10.67660  -0.73009  -0.72672  -0.39178
  Beta  occ. eigenvalues --   -0.39034  -0.23175
  Beta virt. eigenvalues --   -0.13541  -0.10341  -0.09747   0.03162   0.04463
  Beta virt. eigenvalues --    0.07231   0.07242   0.09185   0.09589   0.10732
  Beta virt. eigenvalues --    0.13779   0.18072   0.19093   0.45377   0.45399

 Mulliken charges and spin densities:
               1          2
     1  C   -0.141227   0.000000
     2  C   -0.141265  -0.000000
     3  H    0.141248   0.000000
     4  H    0.141244   0.000000
 Sum of Mulliken charges =   0.00000   0.00000

 Dipole moment (field-independent basis, Debye):
    X=              0.0003    Y=             -0.0006    Z=             -0.0005  Tot=              0.0008
 Quadrupole moment (field-independent basis, Debye-Ang):
   XX=            -17.2759   YY=            -13.0150   ZZ=            -13.8320
   XY=              3.8609   XZ=             -5.2634   YZ=              1.2980

 Normal termination of Gaussian 16 at Wed Dec  4 00:11:03 2024.
