 Gaussian 16, Revision A.03,
 Gaussian 16:  ES64L-G16RevA.03 25-Dec-2016

 --------------------------------------------
 #p opt UM062X/6-311+G** nosymm int=superfine
 --------------------------------------------

 -------------------
 Title Card Required
 -------------------
 Symbolic Z-matrix:
 Charge = -1 Multiplicity = 2

 SCF Done:  E(UM062X) =  -53.2302985762     A.U. after   11 cycles
 SCF Done:  E(UM062X) =  -53.2308272177     A.U. after    9 cycles
 SCF Done:  E(UM062X) =  -53.2309271310     A.U. after    9 cycles
 Optimization completed.
    -- Stationary point found.

                          Input orientation:
 ---------------------------------------------------------------------
 Center     Atomic      Atomic             Coordinates (Angstroms)
 Number     Number       Type             X           Y           Z
 ---------------------------------------------------------------------
      1          5           0       -1.290672    0.000000    0.000000
      2          5           0        1.290672    0.000000    0.000000
      3          1           0        1.449386   -1.191814   -0.000005
      4          1           0       -1.449245   -0.595920    1.032154
      5          1           0        1.449388    0.595931   -1.032127
      6          1           0        1.449206    0.595906    1.032167
      7          1           0       -1.449393    1.191813    0.000007
      8          1           0       -1.449342   -0.595918   -1.032141
 ---------------------------------------------------------------------

 Alpha  occ. eigenvalues --   -6.81447  -6.81442  -0.39492  -0.35440  -0.20282
 Alpha  occ. eigenvalues --   -0.20282  -0.17920  -0.17920  -0.01956
 Alpha virt. eigenvalues --    0.15962   0.17235   0.17614   0.17614   0.19201
 Alpha virt. eigenvalues --    0.19201   0.21196   0.23157   0.26115   0.33035
 Alpha virt. eigenvalues --    0.33035   0.37289   0.37290   0.39012   0.41282

  Beta  occ. eigenvalues --   -6.81374  -6.81373  -0.36913  -0.33839  -0.19793
  Beta  occ. eigenvalues --   -0.19793  -0.17660  -0.17659
  Beta virt. eigenvalues --    0.13609   0.15062   0.17365   0.17365   0.17925
  Beta virt. eigenvalues --    0.18720   0.18720   0.23434   0.24255   0.31721
  Beta virt. eigenvalues --    0.32980   0.32980   0.37511   0.37512   0.39534

 Mulliken charges and spin densities:
               1          2
     1  B   -0.276146   0.597199
     2  B   -0.276146   0.597199
     3  H   -0.074623  -0.032402
     4  H   -0.074612  -0.032397
     5  H   -0.074621  -0.032400
     6  H   -0.074610  -0.032396
     7  H   -0.074623  -0.032402
     8  H   -0.074619  -0.032400
 Sum of Mulliken charges =  -1.00000   1.00000

 Dipole moment (field-independent basis, Debye):
    X=             -0.0000    Y=             -0.0000    Z=              0.0000  Tot=              0.0000
 Quadrupole moment (field-independent basis, Debye-Ang):
   XX=            -33.3636   YY=            -24.0066   ZZ=            -24.0066
   XY=              0.0000   XZ=              0.0000   YZ=              0.0000

 Normal termination of Gaussian 16 at Mon Apr 21 16:51:08 2025.
