 Gaussian 16, Revision A.03,
 Gaussian 16:  ES64L-G16RevA.03 25-Dec-2016

 --------------------------------------------
 #p opt UM062X/6-311+G** nosymm int=superfine
 --------------------------------------------

 -------------------
 Title Card Required
 -------------------
 Symbolic Z-matrix:
 Charge =  0 Multiplicity = 1

 SCF Done:  E(UM062X) =  -83.1220152790     A.U. after   10 cycles
 SCF Done:  E(UM062X) =  -83.1376455556     A.U. after    9 cycles
 SCF Done:  E(UM062X) =  -83.1411047615     A.U. after    9 cycles
 SCF Done:  E(UM062X) =  -83.1411303570     A.U. after    7 cycles
 Optimization completed.
    -- Stationary point found.

                          Input orientation:
 ---------------------------------------------------------------------
 Center     Atomic      Atomic             Coordinates (Angstroms)
 Number     Number       Type             X           Y           Z
 ---------------------------------------------------------------------
      1          5           0       -1.902429    0.000000    0.000000
      2          7           0        1.902429    0.000000    0.000000
      3          1           0        2.266678   -0.945217    0.000006
      4          1           0       -1.915575   -0.593941    1.028712
      5          1           0        2.266580    0.472652   -0.818604
      6          1           0        2.266567    0.472657    0.818606
      7          1           0       -1.915610    1.187857    0.000009
      8          1           0       -1.915591   -0.593929   -1.028719
 ---------------------------------------------------------------------

 Alpha  occ. eigenvalues --  -14.72939  -7.04189  -0.96198  -0.57411  -0.54028
 Alpha  occ. eigenvalues --   -0.54028  -0.39835  -0.39835  -0.34307
 Alpha virt. eigenvalues --   -0.02020   0.02535   0.04784   0.04784   0.05154
 Alpha virt. eigenvalues --    0.08509   0.10748   0.10748   0.17458   0.17897
 Alpha virt. eigenvalues --    0.17897   0.19234   0.19234   0.22677   0.27381

  Beta  occ. eigenvalues --  -14.72939  -7.04189  -0.96198  -0.57411  -0.54028
  Beta  occ. eigenvalues --   -0.54028  -0.39835  -0.39835  -0.34307
  Beta virt. eigenvalues --   -0.02020   0.02535   0.04784   0.04784   0.05154
  Beta virt. eigenvalues --    0.08509   0.10748   0.10748   0.17458   0.17897
  Beta virt. eigenvalues --    0.17897   0.19234   0.19234   0.22677   0.27381

 Mulliken charges and spin densities:
               1          2
     1  B    0.018730   0.000000
     2  N   -0.730811  -0.000000
     3  H    0.245584   0.000000
     4  H   -0.008223  -0.000000
     5  H    0.245584   0.000000
     6  H    0.245584   0.000000
     7  H   -0.008226   0.000000
     8  H   -0.008223  -0.000000
 Sum of Mulliken charges =  -0.00000  -0.00000

 Dipole moment (field-independent basis, Debye):
    X=              1.9638    Y=              0.0001    Z=              0.0000  Tot=              1.9638
 Quadrupole moment (field-independent basis, Debye-Ang):
   XX=            -10.1554   YY=            -15.6511   ZZ=            -15.6511
   XY=              0.0001   XZ=             -0.0000   YZ=              0.0000

 Normal termination of Gaussian 16 at Mon Apr 21 17:39:37 2025.
