 Gaussian 16, Revision A.03,
 Gaussian 16:  ES64L-G16RevA.03 25-Dec-2016

 --------------------------------------------
 #p opt UM062X/6-311+G** nosymm int=superfine
 --------------------------------------------

 -------------------
 Title Card Required
 -------------------
 Symbolic Z-matrix:
 Charge =  0 Multiplicity = 1

 SCF Done:  E(UM062X) =  -94.2759427747     A.U. after   16 cycles
 SCF Done:  E(UM062X) =  -94.2815721025     A.U. after   15 cycles
 SCF Done:  E(UM062X) =  -94.2852810163     A.U. after   15 cycles
 SCF Done:  E(UM062X) =  -94.2853288075     A.U. after   14 cycles
 SCF Done:  E(UM062X) =  -94.2852767759     A.U. after   15 cycles
 SCF Done:  E(UM062X) =  -94.2853254648     A.U. after   17 cycles
 SCF Done:  E(UM062X) =  -94.2853420885     A.U. after   14 cycles
 SCF Done:  E(UM062X) =  -94.2853481220     A.U. after   15 cycles
 SCF Done:  E(UM062X) =  -94.2853527572     A.U. after   13 cycles
 SCF Done:  E(UM062X) =  -94.2853602094     A.U. after   16 cycles
 SCF Done:  E(UM062X) =  -94.2853616207     A.U. after   13 cycles
 Optimization completed.
    -- Stationary point found.

                          Input orientation:
 ---------------------------------------------------------------------
 Center     Atomic      Atomic             Coordinates (Angstroms)
 Number     Number       Type             X           Y           Z
 ---------------------------------------------------------------------
      1          6           0       -1.306637    0.000000    0.000000
      2          7           0        1.306637    0.000000    0.000000
      3          1           0       -2.097648   -0.765110    0.001117
      4          1           0        1.177068   -1.026820    0.000050
      5          1           0       -1.784732    0.988955   -0.000677
 ---------------------------------------------------------------------

 Alpha  occ. eigenvalues --  -14.78840 -10.65656  -0.85362  -0.78892  -0.52324
 Alpha  occ. eigenvalues --   -0.42020  -0.35114  -0.29262
 Alpha virt. eigenvalues --   -0.11207  -0.06965   0.01321   0.05210   0.06584
 Alpha virt. eigenvalues --    0.07544   0.12844   0.14723   0.17093   0.17229
 Alpha virt. eigenvalues --    0.19472   0.20551   0.26873   0.42229   0.45051

  Beta  occ. eigenvalues --  -14.78840 -10.65656  -0.85362  -0.78892  -0.52324
  Beta  occ. eigenvalues --   -0.42020  -0.35114  -0.29262
  Beta virt. eigenvalues --   -0.11207  -0.06965   0.01321   0.05210   0.06584
  Beta virt. eigenvalues --    0.07544   0.12844   0.14723   0.17093   0.17229
  Beta virt. eigenvalues --    0.19472   0.20551   0.26873   0.42229   0.45051

 Mulliken charges and spin densities:
               1          2
     1  C   -0.282266  -0.000000
     2  N   -0.248207   0.000000
     3  H    0.169008  -0.000000
     4  H    0.189479  -0.000000
     5  H    0.171986  -0.000000
 Sum of Mulliken charges =   0.00000   0.00000

 Dipole moment (field-independent basis, Debye):
    X=             -3.6475    Y=             -1.2283    Z=              0.0007  Tot=              3.8487
 Quadrupole moment (field-independent basis, Debye-Ang):
   XX=             -9.5958   YY=            -12.5610   ZZ=            -15.1483
   XY=             -2.4220   XZ=              0.0006   YZ=             -0.0002

 Normal termination of Gaussian 16 at Mon Apr 21 18:20:24 2025.
