 Gaussian 16, Revision A.03,
 Gaussian 16:  ES64L-G16RevA.03 25-Dec-2016

 --------------------------------------------
 #p opt UM062X/6-311+G** nosymm int=superfine
 --------------------------------------------

 -------------------
 Title Card Required
 -------------------
 Symbolic Z-matrix:
 Charge =  1 Multiplicity = 2

 SCF Done:  E(UM062X) =  -108.890872999     A.U. after    9 cycles
 SCF Done:  E(UM062X) =  -108.905141427     A.U. after   11 cycles
 SCF Done:  E(UM062X) =  -108.905145531     A.U. after    7 cycles
 Optimization completed.
    -- Stationary point found.

                          Input orientation:
 ---------------------------------------------------------------------
 Center     Atomic      Atomic             Coordinates (Angstroms)
 Number     Number       Type             X           Y           Z
 ---------------------------------------------------------------------
      1          7           0        0.580391    0.000000    0.000000
      2          7           0       -0.580391    0.000000    0.000000
 ---------------------------------------------------------------------

 Alpha  occ. eigenvalues --  -15.35717 -15.35546  -1.69838  -1.08204  -0.98789
 Alpha  occ. eigenvalues --   -0.95474  -0.92692
 Alpha virt. eigenvalues --   -0.43230  -0.40311  -0.14949  -0.11322  -0.10990
 Alpha virt. eigenvalues --   -0.10615  -0.05320  -0.02618  -0.02260   0.07075
 Alpha virt. eigenvalues --    0.13901   0.40659   0.41952   0.43608   0.53255

  Beta  occ. eigenvalues --  -15.35330 -15.35185  -1.64534  -1.05145  -0.93042
  Beta  occ. eigenvalues --   -0.90797
  Beta virt. eigenvalues --   -0.67629  -0.38778  -0.34407  -0.16533  -0.12316
  Beta virt. eigenvalues --   -0.11326  -0.10616  -0.05933  -0.02360  -0.02289
  Beta virt. eigenvalues --    0.06394   0.16200   0.40867   0.41600   0.43570

 Mulliken charges and spin densities:
               1          2
     1  N    0.500000   0.500000
     2  N    0.500000   0.500000
 Sum of Mulliken charges =   1.00000   1.00000

 Dipole moment (field-independent basis, Debye):
    X=             -0.0000    Y=              0.0000    Z=             -0.0000  Tot=              0.0000
 Quadrupole moment (field-independent basis, Debye-Ang):
   XX=             -8.2144   YY=             -8.5668   ZZ=             -7.5712
   XY=              0.0000   XZ=              0.0000   YZ=             -0.3311

 Normal termination of Gaussian 16 at Wed Feb 26 13:06:14 2025.
