 Gaussian 16, Revision A.03,
 Gaussian 16:  ES64L-G16RevA.03 25-Dec-2016

 --------------------------------------------
 #p opt UM062X/6-311+G** nosymm int=superfine
 --------------------------------------------

 -------------------
 Title Card Required
 -------------------
 Symbolic Z-matrix:
 Charge =  1 Multiplicity = 2

 SCF Done:  E(UM062X) =  -76.5437265963     A.U. after   12 cycles
 SCF Done:  E(UM062X) =  -76.5438790517     A.U. after   14 cycles
 Optimization completed.
    -- Stationary point found.

                          Input orientation:
 ---------------------------------------------------------------------
 Center     Atomic      Atomic             Coordinates (Angstroms)
 Number     Number       Type             X           Y           Z
 ---------------------------------------------------------------------
      1          6           0       -1.057160    0.000000    0.000000
      2          6           0        1.057160    0.000000    0.000000
      3          1           0       -2.169268    0.000000   -0.000000
      4          1           0        2.169266    0.000000   -0.000000
 ---------------------------------------------------------------------

 Alpha  occ. eigenvalues --  -11.01529 -11.01512  -1.04871  -0.99908  -0.77352
 Alpha  occ. eigenvalues --   -0.58653  -0.56701
 Alpha virt. eigenvalues --   -0.40949  -0.40268  -0.38316  -0.13999  -0.12159
 Alpha virt. eigenvalues --   -0.09468  -0.08470  -0.08256  -0.05370  -0.05108
 Alpha virt. eigenvalues --   -0.00492   0.02347   0.05399   0.24293   0.29828

  Beta  occ. eigenvalues --  -11.01245 -11.01234  -1.01816  -0.97926  -0.76143
  Beta  occ. eigenvalues --   -0.54890
  Beta virt. eigenvalues --   -0.38881  -0.37625  -0.36558  -0.31110  -0.14796
  Beta virt. eigenvalues --   -0.12441  -0.10211  -0.08771  -0.08651  -0.05435
  Beta virt. eigenvalues --   -0.05256  -0.01422   0.02424   0.05331   0.24034

 Mulliken charges and spin densities:
               1          2
     1  C    0.113682   0.524635
     2  C    0.113682   0.524636
     3  H    0.386318  -0.024636
     4  H    0.386318  -0.024636
 Sum of Mulliken charges =   1.00000   1.00000

 Dipole moment (field-independent basis, Debye):
    X=             -0.0000    Y=              0.0000    Z=             -0.0000  Tot=              0.0000
 Quadrupole moment (field-independent basis, Debye-Ang):
   XX=              7.2279   YY=            -13.4817   ZZ=            -11.3553
   XY=              0.0000   XZ=              0.0000   YZ=             -0.3041

 Normal termination of Gaussian 16 at Tue Dec  3 11:22:45 2024.
