 Gaussian 16, Revision A.03,
 Gaussian 16:  ES64L-G16RevA.03 25-Dec-2016

 --------------------------------------------
 #p opt UM062X/6-311+G** nosymm int=superfine
 --------------------------------------------

 -------------------
 Title Card Required
 -------------------
 Symbolic Z-matrix:
 Charge =  1 Multiplicity = 2

 SCF Done:  E(UM062X) =  -582.171319064     A.U. after   11 cycles
 SCF Done:  E(UM062X) =  -582.171371407     A.U. after    8 cycles
 SCF Done:  E(UM062X) =  -582.171373432     A.U. after    7 cycles
 Optimization completed.
    -- Stationary point found.

                          Input orientation:
 ---------------------------------------------------------------------
 Center     Atomic      Atomic             Coordinates (Angstroms)
 Number     Number       Type             X           Y           Z
 ---------------------------------------------------------------------
      1         14           0       -1.501292    0.000000    0.000000
      2         14           0        1.501292    0.000000    0.000000
      3          1           0        1.683647   -1.454563    0.000025
      4          1           0       -1.683460   -0.727192    1.259759
      5          1           0        1.683973    0.727308   -1.259615
      6          1           0        1.683313    0.727284    1.259728
      7          1           0       -1.683673    1.454559   -0.000080
      8          1           0       -1.683801   -0.727408   -1.259583
 ---------------------------------------------------------------------

 Alpha  occ. eigenvalues --  -67.23979 -67.23978  -5.78855  -5.78853  -4.10565
 Alpha  occ. eigenvalues --   -4.10561  -4.09737  -4.09737  -4.09737  -4.09737
 Alpha  occ. eigenvalues --   -0.84920  -0.81286  -0.63866  -0.63866  -0.62429
 Alpha  occ. eigenvalues --   -0.62429  -0.50436
 Alpha virt. eigenvalues --   -0.23426  -0.15688  -0.11778  -0.11777  -0.11634
 Alpha virt. eigenvalues --   -0.10898  -0.10898  -0.09964  -0.09014  -0.09013
 Alpha virt. eigenvalues --   -0.07321  -0.06525  -0.06525  -0.03471   0.00632

  Beta  occ. eigenvalues --  -67.23707 -67.23706  -5.78781  -5.78780  -4.09880
  Beta  occ. eigenvalues --   -4.09878  -4.09647  -4.09647  -4.09647  -4.09647
  Beta  occ. eigenvalues --   -0.82302  -0.79727  -0.63391  -0.63391  -0.62123
  Beta  occ. eigenvalues --   -0.62122
  Beta virt. eigenvalues --   -0.32091  -0.19128  -0.15034  -0.11334  -0.11333
  Beta virt. eigenvalues --   -0.10824  -0.10823  -0.10708  -0.09771  -0.08329
  Beta virt. eigenvalues --   -0.08329  -0.06261  -0.06261  -0.05074  -0.02684

 Mulliken charges and spin densities:
               1          2
     1  Si   0.491444   0.537283
     2  Si   0.491444   0.537283
     3  H    0.002852  -0.012433
     4  H    0.002849  -0.012420
     5  H    0.002861  -0.012438
     6  H    0.002844  -0.012413
     7  H    0.002852  -0.012433
     8  H    0.002854  -0.012429
 Sum of Mulliken charges =   1.00000   1.00000

 Dipole moment (field-independent basis, Debye):
    X=              0.0000    Y=              0.0000    Z=             -0.0000  Tot=              0.0000
 Quadrupole moment (field-independent basis, Debye-Ang):
   XX=            -10.5391   YY=            -25.7257   ZZ=            -25.7258
   XY=             -0.0001   XZ=              0.0000   YZ=              0.0000

 Normal termination of Gaussian 16 at Mon Apr 21 20:14:26 2025.
