 Gaussian 16, Revision A.03,
 Gaussian 16:  ES64L-G16RevA.03 25-Dec-2016

 --------------------------------------------
 #p opt UM062X/6-311+G** nosymm int=superfine
 --------------------------------------------

 -------------------
 Title Card Required
 -------------------
 Symbolic Z-matrix:
 Charge =  0 Multiplicity = 1

 SCF Done:  E(UM062X) =  -80.4743434015     A.U. after   16 cycles
 SCF Done:  E(UM062X) =  -80.4779535782     A.U. after   13 cycles
 SCF Done:  E(UM062X) =  -80.4856481767     A.U. after   14 cycles
 SCF Done:  E(UM062X) =  -80.4888635731     A.U. after   13 cycles
 SCF Done:  E(UM062X) =  -80.4908671121     A.U. after   12 cycles
 SCF Done:  E(UM062X) =  -80.4921912444     A.U. after   12 cycles
 SCF Done:  E(UM062X) =  -80.4922623700     A.U. after   12 cycles
 SCF Done:  E(UM062X) =  -80.4922693076     A.U. after   11 cycles
 SCF Done:  E(UM062X) =  -80.4922705613     A.U. after   10 cycles
 Optimization completed.
    -- Stationary point found.

                          Input orientation:
 ---------------------------------------------------------------------
 Center     Atomic      Atomic             Coordinates (Angstroms)
 Number     Number       Type             X           Y           Z
 ---------------------------------------------------------------------
      1          5           0       -1.143075   -0.002580    0.000000
      2          7           0        1.141214    0.001596   -0.000000
      3          1           0       -2.313138   -0.256680   -0.000000
      4          1           0        1.152022    1.038478   -0.000000
 ---------------------------------------------------------------------

 Alpha  occ. eigenvalues --  -14.77152  -7.20942  -0.84204  -0.60993  -0.41069
 Alpha  occ. eigenvalues --   -0.34652  -0.27164
 Alpha virt. eigenvalues --   -0.08742  -0.07892  -0.03923   0.00615   0.03983
 Alpha virt. eigenvalues --    0.04767   0.05256   0.13028   0.16255   0.18441
 Alpha virt. eigenvalues --    0.19915   0.21509   0.25990   0.35608   0.38331

  Beta  occ. eigenvalues --  -14.77152  -7.20942  -0.84204  -0.60993  -0.41069
  Beta  occ. eigenvalues --   -0.34652  -0.27164
  Beta virt. eigenvalues --   -0.08742  -0.07892  -0.03923   0.00615   0.03983
  Beta virt. eigenvalues --    0.04767   0.05256   0.13028   0.16255   0.18441
  Beta virt. eigenvalues --    0.19915   0.21509   0.25990   0.35608   0.38331

 Mulliken charges and spin densities:
               1          2
     1  B    0.138179   0.000000
     2  N   -0.378458  -0.000000
     3  H    0.066546   0.000000
     4  H    0.173733   0.000000
 Sum of Mulliken charges =  -0.00000  -0.00000

 Dipole moment (field-independent basis, Debye):
    X=             -4.4219    Y=              1.1235    Z=             -0.0000  Tot=              4.5624
 Quadrupole moment (field-independent basis, Debye-Ang):
   XX=            -10.5449   YY=            -12.2741   ZZ=            -15.4928
   XY=              2.0554   XZ=             -0.0000   YZ=              0.0000

 Normal termination of Gaussian 16 at Mon Apr 21 21:00:44 2025.
