 Gaussian 16, Revision A.03,
 Gaussian 16:  ES64L-G16RevA.03 25-Dec-2016

 --------------------------------------------
 #p opt UM062X/6-311+G** nosymm int=superfine
 --------------------------------------------

 -------------------
 Title Card Required
 -------------------
 Symbolic Z-matrix:
 Charge =  0 Multiplicity = 1

 SCF Done:  E(UM062X) =  -379.575234253     A.U. after   14 cycles
 SCF Done:  E(UM062X) =  -379.576619219     A.U. after   10 cycles
 SCF Done:  E(UM062X) =  -379.576624999     A.U. after   10 cycles
 Optimization completed.
    -- Stationary point found.

                          Input orientation:
 ---------------------------------------------------------------------
 Center     Atomic      Atomic             Coordinates (Angstroms)
 Number     Number       Type             X           Y           Z
 ---------------------------------------------------------------------
      1          6           0       -1.765377    0.000000    0.000000
      2         15           0        1.765377    0.000000    0.000000
      3          1           0       -2.887394   -0.000000    0.000000
 ---------------------------------------------------------------------

 Alpha  occ. eigenvalues --  -78.07655 -10.71763  -6.89520  -5.01415  -5.00497
 Alpha  occ. eigenvalues --   -5.00497  -0.76512  -0.60758  -0.42275  -0.24106
 Alpha  occ. eigenvalues --   -0.24106
 Alpha virt. eigenvalues --   -0.15181  -0.15181  -0.11753   0.01148   0.04064
 Alpha virt. eigenvalues --    0.05983   0.05983   0.07659   0.08613   0.08613
 Alpha virt. eigenvalues --    0.13414   0.16785   0.33112   0.33112   0.33860

  Beta  occ. eigenvalues --  -78.07655 -10.71763  -6.89520  -5.01415  -5.00497
  Beta  occ. eigenvalues --   -5.00497  -0.76512  -0.60758  -0.42275  -0.24106
  Beta  occ. eigenvalues --   -0.24106
  Beta virt. eigenvalues --   -0.15181  -0.15181  -0.11753   0.01148   0.04064
  Beta virt. eigenvalues --    0.05983   0.05983   0.07659   0.08613   0.08613
  Beta virt. eigenvalues --    0.13414   0.16785   0.33112   0.33112   0.33860

 Mulliken charges and spin densities:
               1          2
     1  C   -0.128735  -0.000000
     2  P   -0.041671   0.000000
     3  H    0.170407   0.000000
 Sum of Mulliken charges =  -0.00000   0.00000

 Dipole moment (field-independent basis, Debye):
    X=             -2.8296    Y=             -0.0000    Z=              0.0000  Tot=              2.8296
 Quadrupole moment (field-independent basis, Debye-Ang):
   XX=            -10.3289   YY=            -24.1461   ZZ=            -24.1461
   XY=              0.0000   XZ=             -0.0000   YZ=             -0.0000

 Normal termination of Gaussian 16 at Mon Apr 21 19:25:04 2025.
