 Gaussian 16, Revision A.03,
 Gaussian 16:  ES64L-G16RevA.03 25-Dec-2016

 --------------------------------------------
 #p opt UM062X/6-311+G** nosymm int=superfine
 --------------------------------------------

 -------------------
 Title Card Required
 -------------------
 Symbolic Z-matrix:
 Charge =  0 Multiplicity = 1

 SCF Done:  E(UM062X) =  -76.8760222689     A.U. after   15 cycles
 SCF Done:  E(UM062X) =  -76.8767352111     A.U. after   15 cycles
 SCF Done:  E(UM062X) =  -76.8779973012     A.U. after   16 cycles
 SCF Done:  E(UM062X) =  -76.8784274888     A.U. after   16 cycles
 SCF Done:  E(UM062X) =  -76.8785425537     A.U. after   15 cycles
 SCF Done:  E(UM062X) =  -76.8785629702     A.U. after   15 cycles
 SCF Done:  E(UM062X) =  -76.8785631611     A.U. after   11 cycles
 Optimization completed.
    -- Stationary point found.

                          Input orientation:
 ---------------------------------------------------------------------
 Center     Atomic      Atomic             Coordinates (Angstroms)
 Number     Number       Type             X           Y           Z
 ---------------------------------------------------------------------
      1          6           0       -1.807625    0.000000    0.000000
      2          6           0        1.807625    0.000000    0.000000
      3          1           0       -1.645282   -0.652769    0.892964
      4          1           0        1.645341    0.654411   -0.891768
 ---------------------------------------------------------------------

 Alpha  occ. eigenvalues --  -10.67663 -10.67661  -0.72997  -0.72383  -0.39134
 Alpha  occ. eigenvalues --   -0.38860  -0.24085
 Alpha virt. eigenvalues --   -0.12341  -0.10414  -0.09442   0.03302   0.04628
 Alpha virt. eigenvalues --    0.07240   0.07339   0.09324   0.09742   0.10969
 Alpha virt. eigenvalues --    0.14009   0.18100   0.19431   0.43830   0.45296

  Beta  occ. eigenvalues --  -10.67663 -10.67661  -0.72997  -0.72383  -0.39134
  Beta  occ. eigenvalues --   -0.38860  -0.24085
  Beta virt. eigenvalues --   -0.12341  -0.10414  -0.09442   0.03302   0.04628
  Beta virt. eigenvalues --    0.07240   0.07339   0.09324   0.09742   0.10969
  Beta virt. eigenvalues --    0.14009   0.18100   0.19431   0.43830   0.45296

 Mulliken charges and spin densities:
               1          2
     1  C   -0.144183   0.000009
     2  C   -0.144191  -0.000009
     3  H    0.144187  -0.000000
     4  H    0.144186   0.000000
 Sum of Mulliken charges =   0.00000   0.00000

 Dipole moment (field-independent basis, Debye):
    X=              0.0000    Y=              0.0024    Z=              0.0018  Tot=              0.0030
 Quadrupole moment (field-independent basis, Debye-Ang):
   XX=            -16.9373   YY=            -12.9420   ZZ=            -13.7516
   XY=              3.5260   XZ=             -4.8142   YZ=              1.2792

 Normal termination of Gaussian 16 at Tue Dec  3 23:43:18 2024.
