 Gaussian 16, Revision A.03,
 Gaussian 16:  ES64L-G16RevA.03 25-Dec-2016

 --------------------------------------------
 #p opt UM062X/6-311+G** nosymm int=superfine
 --------------------------------------------

 -------------------
 Title Card Required
 -------------------
 Symbolic Z-matrix:
 Charge =  1 Multiplicity = 2

 SCF Done:  E(UM062X) =  -76.5850004317     A.U. after   12 cycles
 SCF Done:  E(UM062X) =  -76.5854425521     A.U. after   12 cycles
 Optimization completed.
    -- Stationary point found.

                          Input orientation:
 ---------------------------------------------------------------------
 Center     Atomic      Atomic             Coordinates (Angstroms)
 Number     Number       Type             X           Y           Z
 ---------------------------------------------------------------------
      1          6           0       -1.407160    0.000000    0.000000
      2          6           0        1.407160    0.000000    0.000000
      3          1           0       -2.527135   -0.000000    0.000000
      4          1           0        2.527134   -0.000000   -0.000000
 ---------------------------------------------------------------------

 Alpha  occ. eigenvalues --  -10.95365 -10.95363  -0.99379  -0.98580  -0.67847
 Alpha  occ. eigenvalues --   -0.60999  -0.50887
 Alpha virt. eigenvalues --   -0.39780  -0.35160  -0.33377  -0.13077  -0.11686
 Alpha virt. eigenvalues --   -0.08170  -0.07628  -0.06134  -0.05197  -0.04800
 Alpha virt. eigenvalues --   -0.01223   0.01157   0.05954   0.24343   0.31599

  Beta  occ. eigenvalues --  -10.94976 -10.94976  -0.96953  -0.96396  -0.66565
  Beta  occ. eigenvalues --   -0.59524
  Beta virt. eigenvalues --   -0.33490  -0.31922  -0.31473  -0.29815  -0.13667
  Beta virt. eigenvalues --   -0.11618  -0.07717  -0.06987  -0.06942  -0.04502
  Beta virt. eigenvalues --   -0.03593  -0.01967   0.02883   0.07182   0.23531

 Mulliken charges and spin densities:
               1          2
     1  C    0.251206   0.516005
     2  C    0.251205   0.516005
     3  H    0.248795  -0.016005
     4  H    0.248794  -0.016005
 Sum of Mulliken charges =   1.00000   1.00000

 Dipole moment (field-independent basis, Debye):
    X=             -0.0000    Y=              0.0000    Z=             -0.0000  Tot=              0.0000
 Quadrupole moment (field-independent basis, Debye-Ang):
   XX=             10.2896   YY=             -9.8303   ZZ=            -11.2530
   XY=             -0.0000   XZ=             -0.0000   YZ=             -0.7517

 Normal termination of Gaussian 16 at Tue Dec  3 11:27:19 2024.
