 Gaussian 16, Revision A.03,
 Gaussian 16:  ES64L-G16RevA.03 25-Dec-2016

 --------------------------------------------
 #p opt UM062X/6-311+G** nosymm int=superfine
 --------------------------------------------

 -------------------
 Title Card Required
 -------------------
 Symbolic Z-matrix:
 Charge =  1 Multiplicity = 2

 SCF Done:  E(UM062X) =  -379.349885691     A.U. after   57 cycles
 SCF Done:  E(UM062X) =  -379.350344186     A.U. after   15 cycles
 SCF Done:  E(UM062X) =  -379.350344580     A.U. after   99 cycles
 Optimization completed.
    -- Stationary point found.

                          Input orientation:
 ---------------------------------------------------------------------
 Center     Atomic      Atomic             Coordinates (Angstroms)
 Number     Number       Type             X           Y           Z
 ---------------------------------------------------------------------
      1          6           0       -1.319427    0.000000    0.000000
      2         15           0        1.319427    0.000000    0.000000
      3          1           0       -2.431891   -0.000000   -0.000000
 ---------------------------------------------------------------------

 Alpha  occ. eigenvalues --  -78.38863 -10.97557  -7.20056  -5.31958  -5.31607
 Alpha  occ. eigenvalues --   -5.30810  -1.00722  -0.89967  -0.67901  -0.53364
 Alpha  occ. eigenvalues --   -0.51634
 Alpha virt. eigenvalues --   -0.39703  -0.37188  -0.34860  -0.13308  -0.10481
 Alpha virt. eigenvalues --   -0.08837  -0.08658  -0.08104  -0.05465  -0.05410
 Alpha virt. eigenvalues --   -0.00947   0.02771   0.12825   0.14607   0.14693

  Beta  occ. eigenvalues --  -78.38421 -10.97351  -7.19958  -5.31499  -5.30794
  Beta  occ. eigenvalues --   -5.30591  -0.98580  -0.86851  -0.66753  -0.50274
  Beta virt. eigenvalues --   -0.36069  -0.35966  -0.33467  -0.31992  -0.14368
  Beta virt. eigenvalues --   -0.11098  -0.08921  -0.08793  -0.08411  -0.05562
  Beta virt. eigenvalues --   -0.05505  -0.02061   0.03299   0.12005   0.12115

 Mulliken charges and spin densities:
               1          2
     1  C    0.032184   0.418879
     2  P    0.666564   0.597124
     3  H    0.301252  -0.016003
 Sum of Mulliken charges =   1.00000   1.00000

 Dipole moment (field-independent basis, Debye):
    X=             -0.3092    Y=              0.0000    Z=              0.0000  Tot=              0.3092
 Quadrupole moment (field-independent basis, Debye-Ang):
   XX=              1.4418   YY=            -19.4148   ZZ=            -16.5640
   XY=              0.0000   XZ=              0.0000   YZ=              0.8915

 Normal termination of Gaussian 16 at Mon Apr 21 19:21:21 2025.
