 Gaussian 16, Revision A.03,
 Gaussian 16:  ES64L-G16RevA.03 25-Dec-2016

 --------------------------------------------
 #p opt UM062X/6-311+G** nosymm int=superfine
 --------------------------------------------

 -------------------
 Title Card Required
 -------------------
 Symbolic Z-matrix:
 Charge =  0 Multiplicity = 1

 SCF Done:  E(UM062X) =  -76.2212448719     A.U. after    9 cycles
 SCF Done:  E(UM062X) =  -76.4555778573     A.U. after    9 cycles
 SCF Done:  E(UM062X) =  -76.5803925973     A.U. after   11 cycles
 SCF Done:  E(UM062X) =  -76.5804500217     A.U. after    7 cycles
 SCF Done:  E(UM062X) =  -76.5804506985     A.U. after    7 cycles
 Optimization completed.
    -- Stationary point found.

                          Input orientation:
 ---------------------------------------------------------------------
 Center     Atomic      Atomic             Coordinates (Angstroms)
 Number     Number       Type             X           Y           Z
 ---------------------------------------------------------------------
      1          6           0       -0.401005    0.000000    0.000000
      2          6           0        0.401005    0.000000    0.000000
      3          1           0       -1.457169   -0.000000   -0.000000
      4          1           0        1.457167    0.000000   -0.000000
 ---------------------------------------------------------------------

 Alpha  occ. eigenvalues --  -10.50534 -10.42984  -0.87758  -0.58205  -0.54539
 Alpha  occ. eigenvalues --   -0.46510  -0.46510
 Alpha virt. eigenvalues --    0.02969   0.03776   0.06753   0.06753   0.08429
 Alpha virt. eigenvalues --    0.08429   0.09971   0.17133   0.23572   0.25242
 Alpha virt. eigenvalues --    0.26252   0.26252   0.44584   0.50071   0.51115

  Beta  occ. eigenvalues --  -10.50534 -10.42984  -0.87758  -0.58205  -0.54539
  Beta  occ. eigenvalues --   -0.46510  -0.46510
  Beta virt. eigenvalues --    0.02969   0.03776   0.06753   0.06753   0.08429
  Beta virt. eigenvalues --    0.08429   0.09971   0.17133   0.23572   0.25242
  Beta virt. eigenvalues --    0.26252   0.26252   0.44584   0.50071   0.51115

 Mulliken charges and spin densities:
               1          2
     1  C   -0.093453   0.000000
     2  C   -0.093453  -0.000000
     3  H    0.093454  -0.000000
     4  H    0.093453  -0.000000
 Sum of Mulliken charges =  -0.00000  -0.00000

 Dipole moment (field-independent basis, Debye):
    X=             -0.0000    Y=              0.0000    Z=             -0.0000  Tot=              0.0000
 Quadrupole moment (field-independent basis, Debye-Ang):
   XX=             -8.0265   YY=            -11.5831   ZZ=            -11.5831
   XY=              0.0000   XZ=             -0.0000   YZ=             -0.0000

 Normal termination of Gaussian 16 at Tue Dec  3 19:53:47 2024.
