 Gaussian 16, Revision A.03,
 Gaussian 16:  ES64L-G16RevA.03 25-Dec-2016

 --------------------------------------------
 #p opt UM062X/6-311+G** nosymm int=superfine
 --------------------------------------------

 -------------------
 Title Card Required
 -------------------
 Symbolic Z-matrix:
 Charge =  0 Multiplicity = 1

 SCF Done:  E(UM062X) =  -110.167652826     A.U. after   12 cycles
 SCF Done:  E(UM062X) =  -110.169127065     A.U. after   14 cycles
 SCF Done:  E(UM062X) =  -110.172382470     A.U. after   16 cycles
 SCF Done:  E(UM062X) =  -110.173873141     A.U. after   16 cycles
 SCF Done:  E(UM062X) =  -110.173898826     A.U. after   17 cycles
 SCF Done:  E(UM062X) =  -110.173901282     A.U. after   13 cycles
 SCF Done:  E(UM062X) =  -110.173901324     A.U. after   10 cycles
 Optimization completed.
    -- Stationary point found.

                          Input orientation:
 ---------------------------------------------------------------------
 Center     Atomic      Atomic             Coordinates (Angstroms)
 Number     Number       Type             X           Y           Z
 ---------------------------------------------------------------------
      1          7           0       -1.790428    0.000000    0.000000
      2          7           0        1.790428    0.000000    0.000000
      3          1           0       -1.552199   -1.011680   -0.000000
      4          1           0        1.552199    1.011680   -0.000000
 ---------------------------------------------------------------------

 Alpha  occ. eigenvalues --  -14.88427 -14.88425  -0.92811  -0.92317  -0.49095
 Alpha  occ. eigenvalues --   -0.48830  -0.30944  -0.29946
 Alpha virt. eigenvalues --   -0.21719  -0.20546   0.04964   0.06958   0.10788
 Alpha virt. eigenvalues --    0.11370   0.13084   0.14513   0.15306   0.17476
 Alpha virt. eigenvalues --    0.18948   0.22639   0.52921   0.54690   0.74778

  Beta  occ. eigenvalues --  -14.88427 -14.88425  -0.92811  -0.92317  -0.49095
  Beta  occ. eigenvalues --   -0.48830  -0.30944  -0.29946
  Beta virt. eigenvalues --   -0.21719  -0.20546   0.04964   0.06958   0.10788
  Beta virt. eigenvalues --    0.11370   0.13084   0.14513   0.15306   0.17476
  Beta virt. eigenvalues --    0.18948   0.22639   0.52921   0.54690   0.74778

 Mulliken charges and spin densities:
               1          2
     1  N   -0.234895   0.000001
     2  N   -0.234894  -0.000001
     3  H    0.234894   0.000000
     4  H    0.234894  -0.000000
 Sum of Mulliken charges =  -0.00000   0.00000

 Dipole moment (field-independent basis, Debye):
    X=              0.0000    Y=              0.0000    Z=             -0.0000  Tot=              0.0000
 Quadrupole moment (field-independent basis, Debye-Ang):
   XX=            -15.1546   YY=            -11.3101   ZZ=            -14.1967
   XY=              5.8737   XZ=              0.0001   YZ=              0.0000

 Normal termination of Gaussian 16 at Thu May 15 15:43:21 2025.
