 Gaussian 16, Revision A.03,
 Gaussian 16:  ES64L-G16RevA.03 25-Dec-2016

 ---------------------------------------------------
 #p UM062X/6-311+G** force int=superfine pop=saveNBO
 ---------------------------------------------------

 -------------------
 Title Card Required
 -------------------
 Symbolic Z-matrix:
 Charge =  0 Multiplicity = 1

                         Standard orientation:
 ---------------------------------------------------------------------
 Center     Atomic      Atomic             Coordinates (Angstroms)
 Number     Number       Type             X           Y           Z
 ---------------------------------------------------------------------
      1          6           0        0.000000    0.000000   -2.638976
      2         16           0        0.000000    0.000000    0.989616
 ---------------------------------------------------------------------

 SCF Done:  E(UM062X) =  -435.764320450     A.U. after   26 cycles

 The electronic state is 1-SG.
 Alpha  occ. eigenvalues --  -89.93866 -10.82381  -8.29675  -6.21510  -6.21510
 Alpha  occ. eigenvalues --   -6.21320  -0.73472  -0.70814  -0.30389  -0.28645
 Alpha  occ. eigenvalues --   -0.28645
 Alpha virt. eigenvalues --   -0.20315  -0.20315  -0.17972   0.02706   0.05597
 Alpha virt. eigenvalues --    0.05848   0.05848   0.08461   0.08461   0.08587
 Alpha virt. eigenvalues --    0.13786   0.36048   0.36048   0.36054   0.51766

  Beta  occ. eigenvalues --  -89.93866 -10.82381  -8.29675  -6.21510  -6.21510
  Beta  occ. eigenvalues --   -6.21320  -0.73472  -0.70814  -0.30389  -0.28645
  Beta  occ. eigenvalues --   -0.28645
  Beta virt. eigenvalues --   -0.20315  -0.20315  -0.17972   0.02706   0.05597
  Beta virt. eigenvalues --    0.05848   0.05848   0.08461   0.08461   0.08587
  Beta virt. eigenvalues --    0.13786   0.36048   0.36048   0.36054   0.51766

 Mulliken charges and spin densities:
               1          2
     1  C    0.215714   0.000001
     2  S   -0.215714  -0.000001
 Sum of Mulliken charges =  -0.00000   0.00000

 Dipole moment (field-independent basis, Debye):
    X=              0.0000    Y=              0.0000    Z=             -3.6994  Tot=              3.6994
 Quadrupole moment (field-independent basis, Debye-Ang):
   XX=            -20.8930   YY=            -20.8930   ZZ=            -12.1440
   XY=              0.0000   XZ=              0.0000   YZ=              0.0000

 Summary of Natural Population Analysis:

                                       Natural Population
                Natural  -----------------------------------------------
    Atom  No    Charge         Core      Valence    Rydberg      Total
 -----------------------------------------------------------------------
      C    1    0.12405      1.00000     1.87551    0.00044     2.87595
      S    2   -0.12405      5.00000     3.12375    0.00030     8.12405
 =======================================================================
   * Total *   -0.00000      6.00000     4.99926    0.00074    11.00000

 Normal termination of Gaussian 16 at Mon Apr 21 19:46:53 2025.
