 Gaussian 16, Revision A.03,
 Gaussian 16:  ES64L-G16RevA.03 25-Dec-2016

 --------------------------------------------
 #p opt UM062X/6-311+G** nosymm int=superfine
 --------------------------------------------

 -------------------
 Title Card Required
 -------------------
 Symbolic Z-matrix:
 Charge =  0 Multiplicity = 1

 SCF Done:  E(UM062X) =  -94.2873206283     A.U. after   16 cycles
 SCF Done:  E(UM062X) =  -94.2940950398     A.U. after   15 cycles
 SCF Done:  E(UM062X) =  -94.2967399466     A.U. after   15 cycles
 SCF Done:  E(UM062X) =  -94.2967471923     A.U. after   14 cycles
 SCF Done:  E(UM062X) =  -94.2967150599     A.U. after   15 cycles
 SCF Done:  E(UM062X) =  -94.2967514986     A.U. after   15 cycles
 SCF Done:  E(UM062X) =  -94.2967527652     A.U. after   14 cycles
 SCF Done:  E(UM062X) =  -94.2967550155     A.U. after   14 cycles
 SCF Done:  E(UM062X) =  -94.2967555887     A.U. after   14 cycles
 SCF Done:  E(UM062X) =  -94.2967557077     A.U. after   12 cycles
 Optimization completed.
    -- Stationary point found.

                          Input orientation:
 ---------------------------------------------------------------------
 Center     Atomic      Atomic             Coordinates (Angstroms)
 Number     Number       Type             X           Y           Z
 ---------------------------------------------------------------------
      1          6           0       -1.231637    0.000000    0.000000
      2          7           0        1.231637    0.000000    0.000000
      3          1           0       -1.972811   -0.809426   -0.000094
      4          1           0        1.142929   -1.031168   -0.000231
      5          1           0       -1.719262    0.980591    0.000155
 ---------------------------------------------------------------------

 Alpha  occ. eigenvalues --  -14.78922 -10.66502  -0.85468  -0.79106  -0.53280
 Alpha  occ. eigenvalues --   -0.41827  -0.35475  -0.28766
 Alpha virt. eigenvalues --   -0.11567  -0.06310   0.01382   0.05035   0.06463
 Alpha virt. eigenvalues --    0.07519   0.12914   0.14961   0.16734   0.17467
 Alpha virt. eigenvalues --    0.19842   0.20755   0.27115   0.41942   0.43942

  Beta  occ. eigenvalues --  -14.78922 -10.66502  -0.85468  -0.79106  -0.53280
  Beta  occ. eigenvalues --   -0.41827  -0.35475  -0.28766
  Beta virt. eigenvalues --   -0.11567  -0.06310   0.01382   0.05035   0.06463
  Beta virt. eigenvalues --    0.07519   0.12914   0.14961   0.16734   0.17467
  Beta virt. eigenvalues --    0.19842   0.20755   0.27115   0.41942   0.43942

 Mulliken charges and spin densities:
               1          2
     1  C   -0.280959   0.000000
     2  N   -0.261618  -0.000000
     3  H    0.175980  -0.000000
     4  H    0.185657   0.000000
     5  H    0.180941   0.000000
 Sum of Mulliken charges =  -0.00000   0.00000

 Dipole moment (field-independent basis, Debye):
    X=             -3.6989    Y=             -1.2775    Z=             -0.0002  Tot=              3.9133
 Quadrupole moment (field-independent basis, Debye-Ang):
   XX=             -9.9130   YY=            -12.3938   ZZ=            -15.2994
   XY=             -2.2211   XZ=             -0.0005   YZ=              0.0006

 Normal termination of Gaussian 16 at Mon Apr 21 18:24:24 2025.
