 Gaussian 16, Revision A.03,
 Gaussian 16:  ES64L-G16RevA.03 25-Dec-2016

 --------------------------------------------
 #p opt UM062X/6-311+G** nosymm int=superfine
 --------------------------------------------

 -------------------
 Title Card Required
 -------------------
 Symbolic Z-matrix:
 Charge =  1 Multiplicity = 2

 SCF Done:  E(UM062X) =  -76.5841719835     A.U. after   24 cycles
 SCF Done:  E(UM062X) =  -76.5845056284     A.U. after   26 cycles
 Optimization completed.
    -- Stationary point found.

                          Input orientation:
 ---------------------------------------------------------------------
 Center     Atomic      Atomic             Coordinates (Angstroms)
 Number     Number       Type             X           Y           Z
 ---------------------------------------------------------------------
      1          6           0       -2.032160    0.000000    0.000000
      2          6           0        2.032160    0.000000    0.000000
      3          1           0       -3.149703    0.000000   -0.000000
      4          1           0        3.149702    0.000000   -0.000000
 ---------------------------------------------------------------------

 Alpha  occ. eigenvalues --  -10.94203 -10.94202  -0.97894  -0.97800  -0.63535
 Alpha  occ. eigenvalues --   -0.62703  -0.47564
 Alpha virt. eigenvalues --   -0.40609  -0.33022  -0.32784  -0.12088  -0.11233
 Alpha virt. eigenvalues --   -0.07570  -0.07174  -0.05588  -0.04672  -0.04347
 Alpha virt. eigenvalues --   -0.01599  -0.00384   0.05676   0.27129   0.29054

  Beta  occ. eigenvalues --  -10.93789 -10.93789  -0.95501  -0.95469  -0.62189
  Beta  occ. eigenvalues --   -0.61293
  Beta virt. eigenvalues --   -0.31172  -0.30866  -0.29570  -0.29214  -0.12545
  Beta virt. eigenvalues --   -0.11163  -0.06896  -0.06153  -0.06078  -0.03908
  Beta virt. eigenvalues --   -0.02965  -0.01986   0.01181   0.07378   0.26244

 Mulliken charges and spin densities:
               1          2
     1  C    0.273091   0.516386
     2  C    0.273091   0.516386
     3  H    0.226909  -0.016386
     4  H    0.226909  -0.016386
 Sum of Mulliken charges =   1.00000   1.00000

 Dipole moment (field-independent basis, Debye):
    X=             -0.0000    Y=             -0.0000    Z=              0.0000  Tot=              0.0000
 Quadrupole moment (field-independent basis, Debye-Ang):
   XX=             25.7158   YY=             -9.8661   ZZ=            -11.0929
   XY=             -0.0000   XZ=             -0.0000   YZ=             -0.7896

 Normal termination of Gaussian 16 at Tue Dec  3 11:34:20 2024.
