 Gaussian 16, Revision A.03,
 Gaussian 16:  ES64L-G16RevA.03 25-Dec-2016

 --------------------------------------------
 #p opt UM062X/6-311+G** nosymm int=superfine
 --------------------------------------------

 -------------------
 Title Card Required
 -------------------
 Symbolic Z-matrix:
 Charge =  1 Multiplicity = 2

 SCF Done:  E(UM062X) =  -579.671229079     A.U. after   14 cycles
 SCF Done:  E(UM062X) =  -579.671816789     A.U. after   12 cycles
 SCF Done:  E(UM062X) =  -579.672156260     A.U. after   12 cycles
 SCF Done:  E(UM062X) =  -579.673033903     A.U. after   12 cycles
 SCF Done:  E(UM062X) =  -579.673776681     A.U. after   15 cycles
 SCF Done:  E(UM062X) =  -579.673955179     A.U. after   13 cycles
 SCF Done:  E(UM062X) =  -579.674057696     A.U. after   11 cycles
 SCF Done:  E(UM062X) =  -579.674063672     A.U. after   10 cycles
 SCF Done:  E(UM062X) =  -579.674064334     A.U. after    9 cycles
 SCF Done:  E(UM062X) =  -579.674066423     A.U. after   11 cycles
 SCF Done:  E(UM062X) =  -579.674070463     A.U. after   11 cycles
 SCF Done:  E(UM062X) =  -579.674070903     A.U. after   10 cycles
 SCF Done:  E(UM062X) =  -579.674070917     A.U. after    9 cycles
 Optimization completed.
    -- Stationary point found.

                          Input orientation:
 ---------------------------------------------------------------------
 Center     Atomic      Atomic             Coordinates (Angstroms)
 Number     Number       Type             X           Y           Z
 ---------------------------------------------------------------------
      1         14           0       -2.452975    0.000000    0.000000
      2         14           0        2.452975    0.000000    0.000000
      3          1           0       -2.589263   -1.502396    0.000000
      4          1           0        2.589109    1.502410   -0.000000
 ---------------------------------------------------------------------

 Alpha  occ. eigenvalues --  -67.25867 -67.25867  -5.80043  -5.80043  -4.11145
 Alpha  occ. eigenvalues --   -4.11145  -4.11056  -4.11056  -4.10409  -4.10409
 Alpha  occ. eigenvalues --   -0.74853  -0.74556  -0.51626  -0.51469  -0.38499
 Alpha virt. eigenvalues --   -0.29902  -0.26733  -0.26316  -0.10422  -0.09047
 Alpha virt. eigenvalues --   -0.08224  -0.07520  -0.07379  -0.06320  -0.05453
 Alpha virt. eigenvalues --   -0.05372  -0.04772  -0.02276   0.13059   0.14695

  Beta  occ. eigenvalues --  -67.25610 -67.25609  -5.79971  -5.79970  -4.10994
  Beta  occ. eigenvalues --   -4.10994  -4.10448  -4.10448  -4.10311  -4.10311
  Beta  occ. eigenvalues --   -0.73042  -0.72920  -0.50987  -0.50826
  Beta virt. eigenvalues --   -0.27441  -0.26545  -0.25920  -0.23959  -0.14604
  Beta virt. eigenvalues --   -0.10838  -0.09068  -0.08149  -0.07725  -0.06336
  Beta virt. eigenvalues --   -0.05670  -0.05227  -0.04959  -0.02366   0.09310

 Mulliken charges and spin densities:
               1          2
     1  Si   0.584947   0.507907
     2  Si   0.584953   0.507902
     3  H   -0.084949  -0.007905
     4  H   -0.084951  -0.007905
 Sum of Mulliken charges =   1.00000   1.00000

 Dipole moment (field-independent basis, Debye):
    X=             -0.0000    Y=              0.0000    Z=             -0.0000  Tot=              0.0000
 Quadrupole moment (field-independent basis, Debye-Ang):
   XX=              9.8535   YY=            -27.8228   ZZ=            -20.0215
   XY=              2.4483   XZ=             -0.0000   YZ=              0.0000

 Normal termination of Gaussian 16 at Mon Apr 21 20:45:39 2025.
