 Gaussian 16, Revision A.03,
 Gaussian 16:  ES64L-G16RevA.03 25-Dec-2016

 --------------------------------------------
 #p opt UM062X/6-311+G** nosymm int=superfine
 --------------------------------------------

 -------------------
 Title Card Required
 -------------------
 Symbolic Z-matrix:
 Charge =  0 Multiplicity = 1

 SCF Done:  E(UM062X) =  -151.340688094     A.U. after   15 cycles
 SCF Done:  E(UM062X) =  -151.342677097     A.U. after   20 cycles
 SCF Done:  E(UM062X) =  -151.345961710     A.U. after   23 cycles
 SCF Done:  E(UM062X) =  -151.346570774     A.U. after   21 cycles
 SCF Done:  E(UM062X) =  -151.346676653     A.U. after   40 cycles
 SCF Done:  E(UM062X) =  -151.346685259     A.U. after   19 cycles
 SCF Done:  E(UM062X) =  -151.346685330     A.U. after   15 cycles
 Optimization completed.
    -- Stationary point found.

                          Input orientation:
 ---------------------------------------------------------------------
 Center     Atomic      Atomic             Coordinates (Angstroms)
 Number     Number       Type             X           Y           Z
 ---------------------------------------------------------------------
      1          8           0       -1.461938    0.000000    0.000000
      2          8           0        1.461938    0.000000    0.000000
      3          1           0       -1.275706   -0.769721   -0.567211
      4          1           0        1.275726    0.769348    0.567724
 ---------------------------------------------------------------------

 Alpha  occ. eigenvalues --  -19.72729 -19.72728  -1.13303  -1.12518  -0.57094
 Alpha  occ. eigenvalues --   -0.56453  -0.44520  -0.43841  -0.38523
 Alpha virt. eigenvalues --   -0.24779   0.05340   0.08463   0.14733   0.15157
 Alpha virt. eigenvalues --    0.17683   0.19062   0.20810   0.21586   0.23521
 Alpha virt. eigenvalues --    0.31681   0.48637   0.52715   0.97232   0.99275

  Beta  occ. eigenvalues --  -19.72729 -19.72728  -1.13303  -1.12518  -0.57094
  Beta  occ. eigenvalues --   -0.56453  -0.44520  -0.43841  -0.38523
  Beta virt. eigenvalues --   -0.24779   0.05340   0.08463   0.14733   0.15157
  Beta virt. eigenvalues --    0.17683   0.19062   0.20810   0.21586   0.23521
  Beta virt. eigenvalues --    0.31681   0.48637   0.52715   0.97232   0.99275

 Mulliken charges and spin densities:
               1          2
     1  O   -0.269672   0.000000
     2  O   -0.269674  -0.000000
     3  H    0.269673   0.000000
     4  H    0.269672  -0.000000
 Sum of Mulliken charges =   0.00000   0.00000

 Dipole moment (field-independent basis, Debye):
    X=              0.0000    Y=             -0.0007    Z=              0.0010  Tot=              0.0013
 Quadrupole moment (field-independent basis, Debye-Ang):
   XX=            -12.6901   YY=            -10.4466   ZZ=            -11.9482
   XY=              4.0638   XZ=              2.9967   YZ=              2.4270

 Normal termination of Gaussian 16 at Mon Apr 21 21:37:19 2025.
