 Gaussian 16, Revision A.03,
 Gaussian 16:  ES64L-G16RevA.03 25-Dec-2016

 --------------------------------------------
 #p opt UM062X/6-311+G** nosymm int=superfine
 --------------------------------------------

 -------------------
 Title Card Required
 -------------------
 Symbolic Z-matrix:
 Charge =  0 Multiplicity = 1

 SCF Done:  E(UM062X) =  -474.506537450     A.U. after   13 cycles
 SCF Done:  E(UM062X) =  -474.509920056     A.U. after   13 cycles
 SCF Done:  E(UM062X) =  -474.510232062     A.U. after   15 cycles
 SCF Done:  E(UM062X) =  -474.510423186     A.U. after   13 cycles
 SCF Done:  E(UM062X) =  -474.510424156     A.U. after   10 cycles
 SCF Done:  E(UM062X) =  -474.510424214     A.U. after    9 cycles
 Optimization completed.
    -- Stationary point found.

                          Input orientation:
 ---------------------------------------------------------------------
 Center     Atomic      Atomic             Coordinates (Angstroms)
 Number     Number       Type             X           Y           Z
 ---------------------------------------------------------------------
      1          8           0       -1.089392    0.000000    0.000000
      2         16           0        1.089392    0.000000    0.000000
      3          1           0       -1.195579   -0.955265   -0.106306
      4          1           0        1.069457    0.275803    1.314592
 ---------------------------------------------------------------------

 Alpha  occ. eigenvalues --  -89.96587 -19.67118  -8.32625  -6.24844  -6.24479
 Alpha  occ. eigenvalues --   -6.23947  -1.10067  -0.82606  -0.53813  -0.49402
 Alpha  occ. eigenvalues --   -0.42324  -0.39845  -0.34085
 Alpha virt. eigenvalues --   -0.10796   0.01504   0.04185   0.04942   0.05907
 Alpha virt. eigenvalues --    0.07824   0.15641   0.19376   0.20016   0.21957
 Alpha virt. eigenvalues --    0.27641   0.31708   0.33779   0.35105   0.40785

  Beta  occ. eigenvalues --  -89.96587 -19.67118  -8.32625  -6.24844  -6.24479
  Beta  occ. eigenvalues --   -6.23947  -1.10067  -0.82606  -0.53813  -0.49402
  Beta  occ. eigenvalues --   -0.42324  -0.39845  -0.34085
  Beta virt. eigenvalues --   -0.10796   0.01504   0.04185   0.04942   0.05907
  Beta virt. eigenvalues --    0.07824   0.15641   0.19376   0.20016   0.21957
  Beta virt. eigenvalues --    0.27641   0.31708   0.33779   0.35105   0.40785

 Mulliken charges and spin densities:
               1          2
     1  O   -0.437156  -0.000000
     2  S    0.079406   0.000000
     3  H    0.255853  -0.000000
     4  H    0.101897   0.000000
 Sum of Mulliken charges =  -0.00000  -0.00000

 Dipole moment (field-independent basis, Debye):
    X=              1.4635    Y=             -1.4062    Z=              0.9060  Tot=              2.2226
 Quadrupole moment (field-independent basis, Debye-Ang):
   XX=            -18.6245   YY=            -19.7668   ZZ=            -18.4912
   XY=              2.7297   XZ=              1.7326   YZ=              1.1062

 Normal termination of Gaussian 16 at Thu May 15 12:54:44 2025.
