 Gaussian 16, Revision A.03,
 Gaussian 16:  ES64L-G16RevA.03 25-Dec-2016

 --------------------------------------------
 #p opt UM062X/6-311+G** nosymm int=superfine
 --------------------------------------------

 -------------------
 Title Card Required
 -------------------
 Symbolic Z-matrix:
 Charge =  1 Multiplicity = 2

 SCF Done:  E(UM062X) =  -580.985105105     A.U. after   10 cycles
 SCF Done:  E(UM062X) =  -580.985118269     A.U. after    7 cycles
 SCF Done:  E(UM062X) =  -580.985120323     A.U. after    9 cycles
 SCF Done:  E(UM062X) =  -580.985122276     A.U. after    8 cycles
 SCF Done:  E(UM062X) =  -580.985122311     A.U. after    6 cycles
 Optimization completed.
    -- Stationary point found.

                          Input orientation:
 ---------------------------------------------------------------------
 Center     Atomic      Atomic             Coordinates (Angstroms)
 Number     Number       Type             X           Y           Z
 ---------------------------------------------------------------------
      1         14           0       -1.166295    0.000000    0.000000
      2         14           0        1.166295    0.000000    0.000000
      3          1           0       -1.887063   -1.277452   -0.000625
      4          1           0        1.887063    1.277452    0.000584
      5          1           0       -1.887063    1.277452    0.000629
      6          1           0        1.887063   -1.277452   -0.000579
 ---------------------------------------------------------------------

 Alpha  occ. eigenvalues --  -67.25658 -67.25658  -5.80405  -5.80396  -4.12089
 Alpha  occ. eigenvalues --   -4.12082  -4.11359  -4.11306  -4.11252  -4.11246
 Alpha  occ. eigenvalues --   -0.86289  -0.78510  -0.65409  -0.63005  -0.59519
 Alpha  occ. eigenvalues --   -0.47668
 Alpha virt. eigenvalues --   -0.27781  -0.19250  -0.16872  -0.13708  -0.11709
 Alpha virt. eigenvalues --   -0.10516  -0.09654  -0.08810  -0.08540  -0.08165
 Alpha virt. eigenvalues --   -0.06862  -0.05805  -0.00967   0.06220   0.07406

  Beta  occ. eigenvalues --  -67.25366 -67.25366  -5.80322  -5.80315  -4.11358
  Beta  occ. eigenvalues --   -4.11350  -4.11294  -4.11234  -4.11145  -4.11139
  Beta  occ. eigenvalues --   -0.83969  -0.77239  -0.65224  -0.63137  -0.58945
  Beta virt. eigenvalues --   -0.32015  -0.23160  -0.16978  -0.16338  -0.14997
  Beta virt. eigenvalues --   -0.12294  -0.10570  -0.09747  -0.08519  -0.08188
  Beta virt. eigenvalues --   -0.07557  -0.06603  -0.03915  -0.02128   0.06142

 Mulliken charges and spin densities:
               1          2
     1  Si   0.432114   0.552474
     2  Si   0.432114   0.552474
     3  H    0.033943  -0.026237
     4  H    0.033943  -0.026237
     5  H    0.033943  -0.026237
     6  H    0.033943  -0.026237
 Sum of Mulliken charges =   1.00000   1.00000

 Dipole moment (field-independent basis, Debye):
    X=              0.0000    Y=             -0.0000    Z=             -0.0000  Tot=              0.0000
 Quadrupole moment (field-independent basis, Debye-Ang):
   XX=            -14.1111   YY=            -23.3661   ZZ=            -23.5387
   XY=             -0.0000   XZ=             -0.0000   YZ=              0.0001

 Normal termination of Gaussian 16 at Mon Apr 21 20:22:31 2025.
