 Gaussian 16, Revision A.03,
 Gaussian 16:  ES64L-G16RevA.03 25-Dec-2016

 --------------------------------------------
 #p opt UM062X/6-311+G** nosymm int=superfine
 --------------------------------------------

 -------------------
 Title Card Required
 -------------------
 Symbolic Z-matrix:
 Charge =  0 Multiplicity = 3

 SCF Done:  E(UM062X) =  -50.5261713066     A.U. after   13 cycles
 SCF Done:  E(UM062X) =  -50.5273884810     A.U. after   13 cycles
 SCF Done:  E(UM062X) =  -50.5274010268     A.U. after    8 cycles
 Optimization completed.
    -- Stationary point found.

                          Input orientation:
 ---------------------------------------------------------------------
 Center     Atomic      Atomic             Coordinates (Angstroms)
 Number     Number       Type             X           Y           Z
 ---------------------------------------------------------------------
      1          5           0       -1.353410    0.000000    0.000000
      2          5           0        1.353410    0.000000    0.000000
      3          1           0       -2.564309   -0.000083   -0.000000
      4          1           0        2.564309    0.000083    0.000000
 ---------------------------------------------------------------------

 Alpha  occ. eigenvalues --   -7.13130  -7.13127  -0.56537  -0.55374  -0.37270
 Alpha  occ. eigenvalues --   -0.23540  -0.19755
 Alpha virt. eigenvalues --   -0.07192  -0.06675  -0.03412   0.02663   0.02674
 Alpha virt. eigenvalues --    0.05909   0.07060   0.07220   0.07994   0.08059
 Alpha virt. eigenvalues --    0.12363   0.20133   0.23643   0.37551   0.39458

  Beta  occ. eigenvalues --   -7.12168  -7.12165  -0.52838  -0.52193  -0.29293
  Beta virt. eigenvalues --   -0.05193  -0.04658  -0.02871  -0.01050  -0.00709
  Beta virt. eigenvalues --    0.01562   0.03054   0.06564   0.07023   0.07784
  Beta virt. eigenvalues --    0.09179   0.10532   0.10750   0.21703   0.24970

 Mulliken charges and spin densities:
               1          2
     1  B   -0.061687   0.904063
     2  B   -0.061687   0.904063
     3  H    0.061687   0.095937
     4  H    0.061687   0.095937
 Sum of Mulliken charges =  -0.00000   2.00000

 Dipole moment (field-independent basis, Debye):
    X=             -0.0000    Y=              0.0000    Z=             -0.0000  Tot=              0.0000
 Quadrupole moment (field-independent basis, Debye-Ang):
   XX=            -11.9902   YY=            -13.2897   ZZ=            -17.3056
   XY=              0.0005   XZ=              0.0000   YZ=              0.0048

 1\1\GINC-NODE06\FOpt\UM062X\6-311+G(d,p)\B2H2(3)\SZHAO\21-Apr-2025\0\\
 #p opt UM062X/6-311+G** nosymm int=superfine\\Title Card Required\\0,3
 \B,-1.35341047,0.,0.\B,1.35341047,0.,0.\H,-2.5643086798,-0.0000825008,
 -0.0000001207\H,2.5643086797,0.0000825011,0.0000000762\\Version=ES64L-
 G16RevA.03\HF=-50.527401\S2=2.008286\S2-1=0.\S2A=2.00001\RMSD=6.623e-0
 9\RMSF=5.614e-06\Dipole=0.,0.,0.\Quadrupole=1.6393083,0.6731986,-2.312
 5069,0.0004074,0.0000005,0.0035646\PG=C*V [C*(H1B1B1H1)]\\@

 Normal termination of Gaussian 16 at Mon Apr 21 17:28:21 2025.
