 Gaussian 16, Revision A.03,
 Gaussian 16:  ES64L-G16RevA.03 25-Dec-2016

 --------------------------------------------
 #p opt UM062X/6-311+G** nosymm int=superfine
 --------------------------------------------

 -------------------
 Title Card Required
 -------------------
 Symbolic Z-matrix:
 Charge =  0 Multiplicity = 3

 SCF Done:  E(UM062X) =  -50.4658801961     A.U. after   11 cycles
 SCF Done:  E(UM062X) =  -50.4668285250     A.U. after   12 cycles
 SCF Done:  E(UM062X) =  -50.4668365448     A.U. after    9 cycles
 Optimization completed.
    -- Stationary point found.

                          Input orientation:
 ---------------------------------------------------------------------
 Center     Atomic      Atomic             Coordinates (Angstroms)
 Number     Number       Type             X           Y           Z
 ---------------------------------------------------------------------
      1          5           0       -2.203410    0.000000    0.000000
      2          5           0        2.203410    0.000000    0.000000
      3          1           0       -3.409556   -0.000082   -0.000000
      4          1           0        3.409556    0.000082    0.000000
 ---------------------------------------------------------------------

 Alpha  occ. eigenvalues --   -7.14511  -7.14511  -0.56954  -0.56856  -0.33080
 Alpha  occ. eigenvalues --   -0.31720  -0.17427
 Alpha virt. eigenvalues --   -0.10806  -0.06355  -0.05776   0.02743   0.02929
 Alpha virt. eigenvalues --    0.05461   0.06747   0.07060   0.07527   0.08041
 Alpha virt. eigenvalues --    0.11161   0.15973   0.21553   0.33266   0.38624

  Beta  occ. eigenvalues --   -7.13618  -7.13618  -0.53663  -0.53570  -0.22881
  Beta virt. eigenvalues --   -0.12931  -0.04422  -0.03897  -0.03525  -0.02949
  Beta virt. eigenvalues --    0.01961   0.02383   0.07039   0.07372   0.07998
  Beta virt. eigenvalues --    0.08197   0.08791   0.09652   0.15606   0.22932

 Mulliken charges and spin densities:
               1          2
     1  B   -0.056503   0.931672
     2  B   -0.056504   0.931678
     3  H    0.056504   0.068325
     4  H    0.056504   0.068325
 Sum of Mulliken charges =  -0.00000   2.00000

 Dipole moment (field-independent basis, Debye):
    X=             -0.0000    Y=             -0.0000    Z=             -0.0000  Tot=              0.0000
 Quadrupole moment (field-independent basis, Debye-Ang):
   XX=             -6.5615   YY=            -13.6788   ZZ=            -17.6442
   XY=              0.0000   XZ=              0.0000   YZ=              0.0001

 1\1\GINC-NODE03\FOpt\UM062X\6-311+G(d,p)\B2H2(3)\SZHAO\21-Apr-2025\0\\
 #p opt UM062X/6-311+G** nosymm int=superfine\\Title Card Required\\0,3
 \B,-2.20341047,0.,0.\B,2.20341047,0.,0.\H,-3.4095557348,-0.000082305,-
 0.0000000015\H,3.4095557367,0.0000823049,0.0000000015\\Version=ES64L-G
 16RevA.03\HF=-50.4668365\S2=2.025644\S2-1=0.\S2A=2.000021\RMSD=2.120e-
 09\RMSF=4.693e-07\Dipole=-0.000004,0.,0.\Quadrupole=4.5104479,-0.78112
 51,-3.7293228,0.000033,0.,0.0000548\PG=C*V [C*(H1B1B1H1)]\\@

 Normal termination of Gaussian 16 at Mon Apr 21 17:25:18 2025.
