 Gaussian 16, Revision A.03,
 Gaussian 16:  ES64L-G16RevA.03 25-Dec-2016

 --------------------------------------------
 #p opt UM062X/6-311+G** nosymm int=superfine
 --------------------------------------------

 -------------------
 Title Card Required
 -------------------
 Symbolic Z-matrix:
 Charge =  0 Multiplicity = 1

 SCF Done:  E(UM062X) =  -380.932670157     A.U. after   19 cycles
 SCF Done:  E(UM062X) =  -380.935229786     A.U. after   16 cycles
 SCF Done:  E(UM062X) =  -380.936183665     A.U. after   16 cycles
 SCF Done:  E(UM062X) =  -380.936257263     A.U. after   19 cycles
 SCF Done:  E(UM062X) =  -380.936397641     A.U. after   18 cycles
 SCF Done:  E(UM062X) =  -380.936484675     A.U. after   18 cycles
 SCF Done:  E(UM062X) =  -380.936562286     A.U. after   18 cycles
 SCF Done:  E(UM062X) =  -380.936564326     A.U. after   19 cycles
 SCF Done:  E(UM062X) =  -380.936565376     A.U. after   14 cycles
 SCF Done:  E(UM062X) =  -380.936567423     A.U. after   16 cycles
 SCF Done:  E(UM062X) =  -380.936568179     A.U. after   13 cycles
 SCF Done:  E(UM062X) =  -380.936570408     A.U. after   20 cycles
 SCF Done:  E(UM062X) =  -380.936570946     A.U. after   15 cycles
 SCF Done:  E(UM062X) =  -380.936572528     A.U. after   13 cycles
 SCF Done:  E(UM062X) =  -380.936572671     A.U. after   14 cycles
 SCF Done:  E(UM062X) =  -380.936572715     A.U. after   23 cycles
 SCF Done:  E(UM062X) =  -380.936572724     A.U. after   16 cycles
 Optimization completed on the basis of negligible forces.
    -- Stationary point found.

                          Input orientation:
 ---------------------------------------------------------------------
 Center     Atomic      Atomic             Coordinates (Angstroms)
 Number     Number       Type             X           Y           Z
 ---------------------------------------------------------------------
      1          6           0       -1.905452    0.000000    0.000000
      2         15           0        1.905452    0.000000    0.000000
      3          1           0       -2.618653   -0.844956    0.007700
      4          1           0        1.649615   -1.397987   -0.016637
      5          1           0       -2.557365    0.892961   -0.005586
 ---------------------------------------------------------------------

 Alpha  occ. eigenvalues --  -78.04218 -10.62965  -6.86458  -4.98462  -4.97699
 Alpha  occ. eigenvalues --   -4.97246  -0.77394  -0.65242  -0.49693  -0.37950
 Alpha  occ. eigenvalues --   -0.33406  -0.24089
 Alpha virt. eigenvalues --   -0.10834  -0.09880   0.01301   0.03924   0.04698
 Alpha virt. eigenvalues --    0.06171   0.06930   0.07470   0.08767   0.10904
 Alpha virt. eigenvalues --    0.13538   0.17168   0.18600   0.31263   0.33820

  Beta  occ. eigenvalues --  -78.04218 -10.62965  -6.86458  -4.98462  -4.97699
  Beta  occ. eigenvalues --   -4.97246  -0.77394  -0.65242  -0.49693  -0.37950
  Beta  occ. eigenvalues --   -0.33406  -0.24089
  Beta virt. eigenvalues --   -0.10834  -0.09880   0.01301   0.03924   0.04698
  Beta virt. eigenvalues --    0.06171   0.06930   0.07470   0.08767   0.10904
  Beta virt. eigenvalues --    0.13538   0.17168   0.18600   0.31263   0.33820

 Mulliken charges and spin densities:
               1          2
     1  C   -0.294962   0.000000
     2  P    0.037071   0.000000
     3  H    0.145337   0.000000
     4  H   -0.032737  -0.000000
     5  H    0.145291   0.000000
 Sum of Mulliken charges =  -0.00000   0.00000

 Dipole moment (field-independent basis, Debye):
    X=             -2.7432    Y=             -0.5896    Z=             -0.0047  Tot=              2.8058
 Quadrupole moment (field-independent basis, Debye-Ang):
   XX=            -13.0342   YY=            -21.3510   ZZ=            -25.3847
   XY=             -1.9164   XZ=             -0.0164   YZ=              0.0574

 Normal termination of Gaussian 16 at Mon Apr 21 19:21:12 2025.
