 Gaussian 16, Revision A.03,
 Gaussian 16:  ES64L-G16RevA.03 25-Dec-2016

 ---------------------------------------------------
 #p UM062X/6-311+G** force int=superfine pop=saveNBO
 ---------------------------------------------------

 -------------------
 Title Card Required
 -------------------
 Symbolic Z-matrix:
 Charge =  0 Multiplicity = 1

                         Standard orientation:
 ---------------------------------------------------------------------
 Center     Atomic      Atomic             Coordinates (Angstroms)
 Number     Number       Type             X           Y           Z
 ---------------------------------------------------------------------
      1         16           0        0.000000    0.000000    2.000200
      2         16           0        0.000000    0.000000   -2.000200
 ---------------------------------------------------------------------

 SCF Done:  E(UM062X) =  -796.033231648     A.U. after    9 cycles

 Unable to determine electronic state:  partially filled degenerate orbitals.
 Alpha  occ. eigenvalues --  -89.98761 -89.98761  -8.34562  -8.34562  -6.26589
 Alpha  occ. eigenvalues --   -6.26589  -6.26571  -6.26571  -6.25746  -6.25746
 Alpha  occ. eigenvalues --   -0.78119  -0.77430  -0.34893  -0.34445  -0.32438
 Alpha  occ. eigenvalues --   -0.31132
 Alpha virt. eigenvalues --   -0.23771  -0.22396   0.02971   0.03880   0.04715
 Alpha virt. eigenvalues --    0.05149   0.07050   0.07282   0.07488   0.12346
 Alpha virt. eigenvalues --    0.30903   0.32399   0.33244   0.35802   0.36649

  Beta  occ. eigenvalues --  -89.98761 -89.98761  -8.34562  -8.34562  -6.26589
  Beta  occ. eigenvalues --   -6.26589  -6.26571  -6.26571  -6.25746  -6.25746
  Beta  occ. eigenvalues --   -0.78119  -0.77430  -0.34893  -0.34445  -0.32438
  Beta  occ. eigenvalues --   -0.31132
  Beta virt. eigenvalues --   -0.23771  -0.22396   0.02971   0.03880   0.04715
  Beta virt. eigenvalues --    0.05149   0.07050   0.07282   0.07488   0.12346
  Beta virt. eigenvalues --    0.30903   0.32399   0.33244   0.35802   0.36649

 Mulliken charges and spin densities:
               1          2
     1  S    0.000000   0.000000
     2  S    0.000000   0.000000
 Sum of Mulliken charges =   0.00000   0.00000

 Dipole moment (field-independent basis, Debye):
    X=              0.0000    Y=              0.0000    Z=              0.0000  Tot=              0.0000
 Quadrupole moment (field-independent basis, Debye-Ang):
   XX=            -30.4033   YY=            -25.3850   ZZ=            -22.6465
   XY=              0.0000   XZ=             -0.0000   YZ=              0.0000

 Summary of Natural Population Analysis:

                                       Natural Population
                Natural  -----------------------------------------------
    Atom  No    Charge         Core      Valence    Rydberg      Total
 -----------------------------------------------------------------------
      S    1    0.00000      5.00000     2.99925    0.00075     8.00000
      S    2    0.00000      5.00000     2.99925    0.00075     8.00000
 =======================================================================
   * Total *    0.00000      9.99999     5.99851    0.00150    16.00000

 Normal termination of Gaussian 16 at Mon Apr 21 20:03:43 2025.
