 Gaussian 16, Revision A.03,
 Gaussian 16:  ES64L-G16RevA.03 25-Dec-2016

 --------------------------------------------
 #p opt UM062X/6-311+G** nosymm int=superfine
 --------------------------------------------

 -------------------
 Title Card Required
 -------------------
 Symbolic Z-matrix:
 Charge =  0 Multiplicity = 1

 SCF Done:  E(UM062X) =  -380.948940961     A.U. after   21 cycles
 SCF Done:  E(UM062X) =  -380.950994627     A.U. after   15 cycles
 SCF Done:  E(UM062X) =  -380.952178526     A.U. after   15 cycles
 SCF Done:  E(UM062X) =  -380.952273306     A.U. after   17 cycles
 SCF Done:  E(UM062X) =  -380.952154717     A.U. after   15 cycles
 SCF Done:  E(UM062X) =  -380.952349378     A.U. after   17 cycles
 SCF Done:  E(UM062X) =  -380.952351990     A.U. after   13 cycles
 SCF Done:  E(UM062X) =  -380.952357149     A.U. after   13 cycles
 SCF Done:  E(UM062X) =  -380.952364704     A.U. after   17 cycles
 SCF Done:  E(UM062X) =  -380.952366240     A.U. after   13 cycles
 SCF Done:  E(UM062X) =  -380.952366333     A.U. after   14 cycles
 Optimization completed.
    -- Stationary point found.

                          Input orientation:
 ---------------------------------------------------------------------
 Center     Atomic      Atomic             Coordinates (Angstroms)
 Number     Number       Type             X           Y           Z
 ---------------------------------------------------------------------
      1          6           0       -1.605452    0.000000    0.000000
      2         15           0        1.605452    0.000000    0.000000
      3          1           0       -2.281462   -0.869483    0.000352
      4          1           0        1.383336   -1.403369    0.000408
      5          1           0       -2.246060    0.895586   -0.000312
 ---------------------------------------------------------------------

 Alpha  occ. eigenvalues --  -78.04034 -10.64241  -6.86201  -4.98147  -4.97439
 Alpha  occ. eigenvalues --   -4.97041  -0.78100  -0.64831  -0.51046  -0.37609
 Alpha  occ. eigenvalues --   -0.34326  -0.23704
 Alpha virt. eigenvalues --   -0.10711  -0.09256   0.01253   0.04208   0.04776
 Alpha virt. eigenvalues --    0.06280   0.06941   0.07351   0.08914   0.11524
 Alpha virt. eigenvalues --    0.13656   0.17151   0.18411   0.31095   0.34269

  Beta  occ. eigenvalues --  -78.04034 -10.64241  -6.86201  -4.98147  -4.97439
  Beta  occ. eigenvalues --   -4.97041  -0.78100  -0.64831  -0.51046  -0.37609
  Beta  occ. eigenvalues --   -0.34326  -0.23704
  Beta virt. eigenvalues --   -0.10711  -0.09256   0.01253   0.04208   0.04776
  Beta virt. eigenvalues --    0.06280   0.06941   0.07351   0.08914   0.11524
  Beta virt. eigenvalues --    0.13656   0.17151   0.18411   0.31095   0.34269

 Mulliken charges and spin densities:
               1          2
     1  C   -0.327560  -0.000000
     2  P    0.039044   0.000000
     3  H    0.160072   0.000000
     4  H   -0.031990  -0.000000
     5  H    0.160435   0.000000
 Sum of Mulliken charges =  -0.00000   0.00000

 Dipole moment (field-independent basis, Debye):
    X=             -2.8062    Y=             -0.5937    Z=              0.0002  Tot=              2.8683
 Quadrupole moment (field-independent basis, Debye-Ang):
   XX=            -14.2940   YY=            -21.2783   ZZ=            -25.5707
   XY=             -1.5910   XZ=              0.0005   YZ=             -0.0013

 Normal termination of Gaussian 16 at Mon Apr 21 19:13:35 2025.
