 Gaussian 16, Revision A.03,
 Gaussian 16:  ES64L-G16RevA.03 25-Dec-2016

 --------------------------------------------
 #p opt UM062X/6-311+G** nosymm int=superfine
 --------------------------------------------

 -------------------
 Title Card Required
 -------------------
 Symbolic Z-matrix:
 Charge =  0 Multiplicity = 1

 SCF Done:  E(UM062X) =  -382.300204082     A.U. after   12 cycles
 SCF Done:  E(UM062X) =  -382.308596984     A.U. after   11 cycles
 SCF Done:  E(UM062X) =  -382.312086804     A.U. after   11 cycles
 SCF Done:  E(UM062X) =  -382.312114208     A.U. after    9 cycles
 SCF Done:  E(UM062X) =  -382.312132562     A.U. after    9 cycles
 SCF Done:  E(UM062X) =  -382.312136941     A.U. after    9 cycles
 SCF Done:  E(UM062X) =  -382.312137127     A.U. after    7 cycles
 Optimization completed.
    -- Stationary point found.

                          Input orientation:
 ---------------------------------------------------------------------
 Center     Atomic      Atomic             Coordinates (Angstroms)
 Number     Number       Type             X           Y           Z
 ---------------------------------------------------------------------
      1          6           0       -1.531264    0.000000    0.000000
      2         15           0        1.531264    0.000000    0.000000
      3          1           0        1.493607   -1.418187    0.031311
      4          1           0       -1.668570    1.045896    0.235460
      5          1           0        1.493675    0.084408    1.415999
      6          1           0       -1.668569   -0.313896   -1.025088
      7          1           0       -1.683735   -0.727609    0.784897
 ---------------------------------------------------------------------

 Alpha  occ. eigenvalues --  -78.03287 -10.58243  -6.85622  -4.97149  -4.97086
 Alpha  occ. eigenvalues --   -4.96897  -0.77830  -0.69381  -0.49641  -0.49580
 Alpha  occ. eigenvalues --   -0.43609  -0.34759  -0.26744
 Alpha virt. eigenvalues --   -0.08263   0.01906   0.04003   0.04245   0.04651
 Alpha virt. eigenvalues --    0.06408   0.06883   0.07271   0.07438   0.12302
 Alpha virt. eigenvalues --    0.17534   0.18779   0.18995   0.24539   0.30059

  Beta  occ. eigenvalues --  -78.03287 -10.58243  -6.85622  -4.97149  -4.97086
  Beta  occ. eigenvalues --   -4.96897  -0.77830  -0.69381  -0.49641  -0.49580
  Beta  occ. eigenvalues --   -0.43609  -0.34759  -0.26744
  Beta virt. eigenvalues --   -0.08263   0.01906   0.04003   0.04245   0.04651
  Beta virt. eigenvalues --    0.06408   0.06883   0.07271   0.07438   0.12302
  Beta virt. eigenvalues --    0.17534   0.18779   0.18995   0.24539   0.30059

 Mulliken charges and spin densities:
               1          2
     1  C   -0.544919  -0.000000
     2  P   -0.030332   0.000000
     3  H    0.009394  -0.000000
     4  H    0.186049   0.000000
     5  H    0.009409  -0.000000
     6  H    0.186074   0.000000
     7  H    0.184325   0.000000
 Sum of Mulliken charges =  -0.00000  -0.00000

 Dipole moment (field-independent basis, Debye):
    X=             -0.9803    Y=             -0.5350    Z=              0.5807  Tot=              1.2587
 Quadrupole moment (field-independent basis, Debye-Ang):
   XX=            -22.5535   YY=            -22.2274   ZZ=            -22.3426
   XY=             -1.1124   XZ=              1.2074   YZ=              0.7044

 Normal termination of Gaussian 16 at Mon Apr 21 19:04:51 2025.
