 Gaussian 16, Revision A.03,
 Gaussian 16:  ES64L-G16RevA.03 25-Dec-2016

 --------------------------------------------
 #p opt UM062X/6-311+G** nosymm int=superfine
 --------------------------------------------

 -------------------
 Title Card Required
 -------------------
 Symbolic Z-matrix:
 Charge =  0 Multiplicity = 1

 SCF Done:  E(UM062X) =  -51.9806901720     A.U. after    8 cycles
 SCF Done:  E(UM062X) =  -51.9808826938     A.U. after    7 cycles
 SCF Done:  E(UM062X) =  -51.9810130543     A.U. after    8 cycles
 SCF Done:  E(UM062X) =  -51.9818140245     A.U. after   11 cycles
 SCF Done:  E(UM062X) =  -51.9813279813     A.U. after   10 cycles
 SCF Done:  E(UM062X) =  -51.9830870835     A.U. after    9 cycles
 SCF Done:  E(UM062X) =  -51.9865132283     A.U. after   10 cycles
 SCF Done:  E(UM062X) =  -51.9897425478     A.U. after   10 cycles
 SCF Done:  E(UM062X) =  -51.9899503391     A.U. after   10 cycles
 SCF Done:  E(UM062X) =  -51.9870360352     A.U. after   10 cycles
 SCF Done:  E(UM062X) =  -51.9902594878     A.U. after   10 cycles
 SCF Done:  E(UM062X) =  -51.9907535272     A.U. after    9 cycles
 SCF Done:  E(UM062X) =  -51.9907541528     A.U. after    8 cycles
 SCF Done:  E(UM062X) =  -51.9907565119     A.U. after    7 cycles
 SCF Done:  E(UM062X) =  -51.9907569858     A.U. after    7 cycles
 SCF Done:  E(UM062X) =  -51.9907570790     A.U. after    6 cycles
 Optimization completed.
    -- Stationary point found.

                          Input orientation:
 ---------------------------------------------------------------------
 Center     Atomic      Atomic             Coordinates (Angstroms)
 Number     Number       Type             X           Y           Z
 ---------------------------------------------------------------------
      1          5           0       -0.970607    0.000000    0.000000
      2          5           0        0.970607    0.000000    0.000000
      3          1           0       -1.572773   -0.728260   -0.723861
      4          1           0        1.572838    0.723860   -0.728213
      5          1           0       -1.572797    0.728235    0.723865
      6          1           0        1.572838   -0.723852    0.728222
 ---------------------------------------------------------------------

 Alpha  occ. eigenvalues --   -7.06315  -7.06292  -0.59742  -0.53800  -0.41468
 Alpha  occ. eigenvalues --   -0.41467  -0.33077
 Alpha virt. eigenvalues --   -0.03281  -0.03281   0.02301   0.03046   0.04803
 Alpha virt. eigenvalues --    0.04803   0.06784   0.07706   0.07706   0.11213
 Alpha virt. eigenvalues --    0.15468   0.19563   0.20326   0.22249   0.22250

  Beta  occ. eigenvalues --   -7.06315  -7.06292  -0.59742  -0.53800  -0.41468
  Beta  occ. eigenvalues --   -0.41467  -0.33077
  Beta virt. eigenvalues --   -0.03281  -0.03281   0.02301   0.03046   0.04803
  Beta virt. eigenvalues --    0.04803   0.06784   0.07706   0.07706   0.11213
  Beta virt. eigenvalues --    0.15468   0.19563   0.20326   0.22249   0.22250

 Mulliken charges and spin densities:
               1          2
     1  B   -0.031352  -0.000000
     2  B   -0.031361   0.000000
     3  H    0.015679   0.000000
     4  H    0.015677  -0.000000
     5  H    0.015680  -0.000000
     6  H    0.015677   0.000000
 Sum of Mulliken charges =  -0.00000  -0.00000

 Dipole moment (field-independent basis, Debye):
    X=             -0.0001    Y=              0.0000    Z=             -0.0000  Tot=              0.0001
 Quadrupole moment (field-independent basis, Debye-Ang):
   XX=            -16.8423   YY=            -14.8965   ZZ=            -14.8965
   XY=             -0.0000   XZ=             -0.0000   YZ=              0.0001

 Normal termination of Gaussian 16 at Mon Apr 21 17:00:31 2025.
