 Gaussian 16, Revision A.03,
 Gaussian 16:  ES64L-G16RevA.03 25-Dec-2016

 --------------------------------------------
 #p opt UM062X/6-311+G** nosymm int=superfine
 --------------------------------------------

 -------------------
 Title Card Required
 -------------------
 Symbolic Z-matrix:
 Charge = -1 Multiplicity = 2

 SCF Done:  E(UM062X) =  -50.5599635398     A.U. after   14 cycles
 SCF Done:  E(UM062X) =  -50.6573619274     A.U. after   13 cycles
 SCF Done:  E(UM062X) =  -50.7492835091     A.U. after   14 cycles
 SCF Done:  E(UM062X) =  -50.7756779151     A.U. after   12 cycles
 SCF Done:  E(UM062X) =  -50.7848373553     A.U. after   13 cycles
 SCF Done:  E(UM062X) =  -50.7811313638     A.U. after   11 cycles
 SCF Done:  E(UM062X) =  -50.7865444309     A.U. after   10 cycles
 SCF Done:  E(UM062X) =  -50.7868460308     A.U. after   11 cycles
 SCF Done:  E(UM062X) =  -50.7868501722     A.U. after    9 cycles
 Optimization completed.
    -- Stationary point found.

                          Input orientation:
 ---------------------------------------------------------------------
 Center     Atomic      Atomic             Coordinates (Angstroms)
 Number     Number       Type             X           Y           Z
 ---------------------------------------------------------------------
      1          5           0       -0.565232   -0.479784   -0.000000
      2          5           0        0.565232    0.479784   -0.000000
      3          1           0       -1.467137   -1.246531    0.000000
      4          1           0        1.467137    1.246531    0.000000
 ---------------------------------------------------------------------

 Alpha  occ. eigenvalues --   -6.80016  -6.79867  -0.36314  -0.28606  -0.20015
 Alpha  occ. eigenvalues --   -0.03357  -0.01617
 Alpha virt. eigenvalues --    0.14394   0.15669   0.18583   0.19165   0.20167
 Alpha virt. eigenvalues --    0.21199   0.21948   0.26387   0.29232   0.30375
 Alpha virt. eigenvalues --    0.34723   0.39962   0.53138   0.55765   0.59077

  Beta  occ. eigenvalues --   -6.79963  -6.79819  -0.33361  -0.27708  -0.19545
  Beta  occ. eigenvalues --    0.00469
  Beta virt. eigenvalues --    0.11775   0.14601   0.15267   0.17709   0.19457
  Beta virt. eigenvalues --    0.19607   0.21081   0.21719   0.24432   0.32021
  Beta virt. eigenvalues --    0.32698   0.35764   0.40418   0.53842   0.56240

 Mulliken charges and spin densities:
               1          2
     1  B   -0.437556   0.525828
     2  B   -0.437556   0.525828
     3  H   -0.062444  -0.025828
     4  H   -0.062444  -0.025828
 Sum of Mulliken charges =  -1.00000   1.00000

 Dipole moment (field-independent basis, Debye):
    X=              0.0000    Y=              0.0000    Z=             -0.0000  Tot=              0.0000
 Quadrupole moment (field-independent basis, Debye-Ang):
   XX=            -21.2312   YY=            -20.8929   ZZ=            -25.9502
   XY=             -1.0304   XZ=              0.0000   YZ=             -0.0000

 Normal termination of Gaussian 16 at Wed Apr 16 00:03:55 2025.
