 Gaussian 16, Revision A.03,
 Gaussian 16:  ES64L-G16RevA.03 25-Dec-2016

 ---------------------------------------------------
 #p UM062X/6-311+G** force int=superfine pop=saveNBO
 ---------------------------------------------------

 -------------------
 Title Card Required
 -------------------
 Symbolic Z-matrix:
 Charge =  0 Multiplicity = 1

                         Standard orientation:
 ---------------------------------------------------------------------
 Center     Atomic      Atomic             Coordinates (Angstroms)
 Number     Number       Type             X           Y           Z
 ---------------------------------------------------------------------
      1          6           0        0.000000    0.000000   -1.220794
      2         16           0        0.000000    0.000000    0.457798
 ---------------------------------------------------------------------

 SCF Done:  E(UM062X) =  -436.180047429     A.U. after   11 cycles

 The electronic state is 1-SG.
 Alpha  occ. eigenvalues --  -89.95345 -10.68610  -8.31738  -6.23568  -6.23533
 Alpha  occ. eigenvalues --   -6.23533  -0.89301  -0.60568  -0.39213  -0.39213
 Alpha  occ. eigenvalues --   -0.38744
 Alpha virt. eigenvalues --   -0.07062  -0.07062   0.03152   0.03345   0.05104
 Alpha virt. eigenvalues --    0.05104   0.09064   0.10776   0.10776   0.14195
 Alpha virt. eigenvalues --    0.17232   0.34087   0.34087   0.36683   0.53688

  Beta  occ. eigenvalues --  -89.95345 -10.68610  -8.31738  -6.23568  -6.23533
  Beta  occ. eigenvalues --   -6.23533  -0.89301  -0.60568  -0.39213  -0.39213
  Beta  occ. eigenvalues --   -0.38744
  Beta virt. eigenvalues --   -0.07062  -0.07062   0.03152   0.03345   0.05104
  Beta virt. eigenvalues --    0.05104   0.09064   0.10776   0.10776   0.14195
  Beta virt. eigenvalues --    0.17232   0.34087   0.34087   0.36683   0.53688

 Mulliken charges and spin densities:
               1          2
     1  C   -0.089834   0.000000
     2  S    0.089834  -0.000000
 Sum of Mulliken charges =   0.00000  -0.00000

 Dipole moment (field-independent basis, Debye):
    X=              0.0000    Y=              0.0000    Z=              1.1611  Tot=              1.1611
 Quadrupole moment (field-independent basis, Debye-Ang):
   XX=            -18.8236   YY=            -18.8236   ZZ=            -20.5007
   XY=              0.0000   XZ=              0.0000   YZ=              0.0000

 Summary of Natural Population Analysis:

                                       Natural Population
                Natural  -----------------------------------------------
    Atom  No    Charge         Core      Valence    Rydberg      Total
 -----------------------------------------------------------------------
      C    1   -0.02581      0.99993     2.01097    0.01491     3.02581
      S    2    0.02581      4.99968     2.95534    0.01917     7.97419
 =======================================================================
   * Total *   -0.00000      5.99960     4.96632    0.03408    11.00000

 Normal termination of Gaussian 16 at Mon Apr 21 19:45:58 2025.
