 Gaussian 16, Revision A.03,
 Gaussian 16:  ES64L-G16RevA.03 25-Dec-2016

 --------------------------------------------
 #p opt UM062X/6-311+G** nosymm int=superfine
 --------------------------------------------

 -------------------
 Title Card Required
 -------------------
 Symbolic Z-matrix:
 Charge =  0 Multiplicity = 1

 SCF Done:  E(UM062X) =  -437.233981966     A.U. after   14 cycles
 SCF Done:  E(UM062X) =  -437.234188465     A.U. after   12 cycles
 SCF Done:  E(UM062X) =  -437.234299931     A.U. after   14 cycles
 SCF Done:  E(UM062X) =  -437.234279981     A.U. after   13 cycles
 SCF Done:  E(UM062X) =  -437.234300691     A.U. after   14 cycles
 Optimization completed.
    -- Stationary point found.

                          Input orientation:
 ---------------------------------------------------------------------
 Center     Atomic      Atomic             Coordinates (Angstroms)
 Number     Number       Type             X           Y           Z
 ---------------------------------------------------------------------
      1          6           0       -1.302140    0.000000    0.000000
      2         16           0        1.302140    0.000000    0.000000
      3          1           0       -1.838888   -0.946542    0.000109
      4          1           0       -1.839238    0.946345   -0.000071
 ---------------------------------------------------------------------

 Alpha  occ. eigenvalues --  -89.91897 -10.69730  -8.27663  -6.20031  -6.19282
 Alpha  occ. eigenvalues --   -6.18967  -0.81417  -0.72001  -0.56725  -0.37775
 Alpha  occ. eigenvalues --   -0.29145  -0.29107
 Alpha virt. eigenvalues --   -0.14399  -0.10100   0.01154   0.04922   0.05982
 Alpha virt. eigenvalues --    0.06609   0.08582   0.08642   0.09166   0.13866
 Alpha virt. eigenvalues --    0.16208   0.18342   0.35901   0.36195   0.37358

  Beta  occ. eigenvalues --  -89.91897 -10.69730  -8.27663  -6.20031  -6.19282
  Beta  occ. eigenvalues --   -6.18967  -0.81417  -0.72001  -0.56725  -0.37775
  Beta  occ. eigenvalues --   -0.29145  -0.29107
  Beta virt. eigenvalues --   -0.14399  -0.10100   0.01154   0.04922   0.05982
  Beta virt. eigenvalues --    0.06609   0.08582   0.08642   0.09166   0.13866
  Beta virt. eigenvalues --    0.16208   0.18342   0.35901   0.36195   0.37358

 Mulliken charges and spin densities:
               1          2
     1  C   -0.272051  -0.000000
     2  S   -0.136403   0.000000
     3  H    0.204228   0.000000
     4  H    0.204227   0.000000
 Sum of Mulliken charges =  -0.00000   0.00000

 Dipole moment (field-independent basis, Debye):
    X=             -3.9656    Y=             -0.0002    Z=              0.0000  Tot=              3.9656
 Quadrupole moment (field-independent basis, Debye-Ang):
   XX=            -14.6839   YY=            -21.6297   ZZ=            -22.1984
   XY=             -0.0003   XZ=              0.0000   YZ=             -0.0001

 Normal termination of Gaussian 16 at Mon Apr 21 19:43:38 2025.
