 Gaussian 16, Revision A.03,
 Gaussian 16:  ES64L-G16RevA.03 25-Dec-2016

 --------------------------------------------
 #p opt UM062X/6-311+G** nosymm int=superfine
 --------------------------------------------

 -------------------
 Title Card Required
 -------------------
 Symbolic Z-matrix:
 Charge =  0 Multiplicity = 1

 SCF Done:  E(UM062X) =  -83.1267020044     A.U. after   10 cycles
 SCF Done:  E(UM062X) =  -83.1415085957     A.U. after    9 cycles
 SCF Done:  E(UM062X) =  -83.1444593807     A.U. after    9 cycles
 SCF Done:  E(UM062X) =  -83.1444772399     A.U. after    7 cycles
 Optimization completed.
    -- Stationary point found.

                          Input orientation:
 ---------------------------------------------------------------------
 Center     Atomic      Atomic             Coordinates (Angstroms)
 Number     Number       Type             X           Y           Z
 ---------------------------------------------------------------------
      1          5           0       -1.652429    0.000000    0.000000
      2          7           0        1.652429    0.000000    0.000000
      3          1           0        2.014205   -0.946096    0.000001
      4          1           0       -1.674364   -0.594155    1.029071
      5          1           0        2.014094    0.473102   -0.819365
      6          1           0        2.014082    0.473098    0.819372
      7          1           0       -1.674383    1.188277    0.000015
      8          1           0       -1.674380   -0.594132   -1.029084
 ---------------------------------------------------------------------

 Alpha  occ. eigenvalues --  -14.73527  -7.03712  -0.96653  -0.56886  -0.54510
 Alpha  occ. eigenvalues --   -0.54510  -0.39321  -0.39321  -0.34879
 Alpha virt. eigenvalues --   -0.01479   0.02257   0.04821   0.04821   0.05628
 Alpha virt. eigenvalues --    0.08458   0.10895   0.10895   0.17599   0.17600
 Alpha virt. eigenvalues --    0.17981   0.19652   0.19652   0.23067   0.28214

  Beta  occ. eigenvalues --  -14.73527  -7.03712  -0.96653  -0.56886  -0.54510
  Beta  occ. eigenvalues --   -0.54510  -0.39321  -0.39321  -0.34879
  Beta virt. eigenvalues --   -0.01479   0.02257   0.04821   0.04821   0.05628
  Beta virt. eigenvalues --    0.08458   0.10895   0.10895   0.17599   0.17600
  Beta virt. eigenvalues --    0.17981   0.19652   0.19652   0.23067   0.28214

 Mulliken charges and spin densities:
               1          2
     1  B    0.012518  -0.000000
     2  N   -0.740445   0.000000
     3  H    0.250281   0.000000
     4  H   -0.007640  -0.000000
     5  H    0.250282  -0.000000
     6  H    0.250282  -0.000000
     7  H   -0.007640  -0.000000
     8  H   -0.007640   0.000000
 Sum of Mulliken charges =  -0.00000  -0.00000

 Dipole moment (field-independent basis, Debye):
    X=              2.1601    Y=              0.0002    Z=              0.0000  Tot=              2.1601
 Quadrupole moment (field-independent basis, Debye-Ang):
   XX=            -11.1309   YY=            -15.7026   ZZ=            -15.7027
   XY=              0.0000   XZ=             -0.0000   YZ=              0.0000

 Normal termination of Gaussian 16 at Mon Apr 21 17:38:47 2025.
