 Gaussian 16, Revision A.03,
 Gaussian 16:  ES64L-G16RevA.03 25-Dec-2016

 --------------------------------------------
 #p opt UM062X/6-311+G** nosymm int=superfine
 --------------------------------------------

 -------------------
 Title Card Required
 -------------------
 Symbolic Z-matrix:
 Charge =  0 Multiplicity = 1

 SCF Done:  E(UM062X) =  -380.987271970     A.U. after   15 cycles
 SCF Done:  E(UM062X) =  -380.988963895     A.U. after   14 cycles
 SCF Done:  E(UM062X) =  -380.989335613     A.U. after   14 cycles
 SCF Done:  E(UM062X) =  -380.989196898     A.U. after   17 cycles
 SCF Done:  E(UM062X) =  -380.989358596     A.U. after   15 cycles
 SCF Done:  E(UM062X) =  -380.989376259     A.U. after   14 cycles
 SCF Done:  E(UM062X) =  -380.989389641     A.U. after   12 cycles
 SCF Done:  E(UM062X) =  -380.989389742     A.U. after   12 cycles
 Optimization completed.
    -- Stationary point found.

                          Input orientation:
 ---------------------------------------------------------------------
 Center     Atomic      Atomic             Coordinates (Angstroms)
 Number     Number       Type             X           Y           Z
 ---------------------------------------------------------------------
      1          6           0       -1.380452    0.000000    0.000000
      2         15           0        1.380452    0.000000    0.000000
      3          1           0       -1.960594   -0.923698    0.000737
      4          1           0        1.258314   -1.416160    0.001100
      5          1           0       -1.946193    0.931944   -0.000764
 ---------------------------------------------------------------------

 Alpha  occ. eigenvalues --  -78.05933 -10.64273  -6.87877  -4.99566  -4.99121
 Alpha  occ. eigenvalues --   -4.98992  -0.77295  -0.66071  -0.52126  -0.38671
 Alpha  occ. eigenvalues --   -0.33684  -0.24677
 Alpha virt. eigenvalues --   -0.11343  -0.07672   0.01989   0.04202   0.04644
 Alpha virt. eigenvalues --    0.05996   0.06692   0.07088   0.09679   0.11124
 Alpha virt. eigenvalues --    0.13904   0.18553   0.19090   0.30530   0.32653

  Beta  occ. eigenvalues --  -78.05933 -10.64273  -6.87877  -4.99566  -4.99121
  Beta  occ. eigenvalues --   -4.98992  -0.77295  -0.66071  -0.52126  -0.38671
  Beta  occ. eigenvalues --   -0.33684  -0.24677
  Beta virt. eigenvalues --   -0.11343  -0.07672   0.01989   0.04202   0.04644
  Beta virt. eigenvalues --    0.05996   0.06692   0.07088   0.09679   0.11124
  Beta virt. eigenvalues --    0.13904   0.18553   0.19090   0.30530   0.32653

 Mulliken charges and spin densities:
               1          2
     1  C   -0.413417  -0.000000
     2  P    0.072241   0.000000
     3  H    0.180090   0.000000
     4  H   -0.019454  -0.000000
     5  H    0.180540   0.000000
 Sum of Mulliken charges =  -0.00000   0.00000

 Dipole moment (field-independent basis, Debye):
    X=             -1.6485    Y=             -0.6016    Z=              0.0004  Tot=              1.7549
 Quadrupole moment (field-independent basis, Debye-Ang):
   XX=            -16.2474   YY=            -20.7200   ZZ=            -25.2440
   XY=             -1.3088   XZ=              0.0010   YZ=             -0.0036

 Normal termination of Gaussian 16 at Mon Apr 21 19:15:42 2025.
