 Gaussian 16, Revision A.03,
 Gaussian 16:  ES64L-G16RevA.03 25-Dec-2016

 --------------------------------------------
 #p opt UM062X/6-311+G** nosymm int=superfine
 --------------------------------------------

 -------------------
 Title Card Required
 -------------------
 Symbolic Z-matrix:
 Charge =  0 Multiplicity = 1

 SCF Done:  E(UM062X) =  -797.542580402     A.U. after   10 cycles
 SCF Done:  E(UM062X) =  -797.543195551     A.U. after   10 cycles
 SCF Done:  E(UM062X) =  -797.542741539     A.U. after   11 cycles
 SCF Done:  E(UM062X) =  -797.543263782     A.U. after    9 cycles
 SCF Done:  E(UM062X) =  -797.543263845     A.U. after    8 cycles
 Optimization completed.
    -- Stationary point found.

                          Input orientation:
 ---------------------------------------------------------------------
 Center     Atomic      Atomic             Coordinates (Angstroms)
 Number     Number       Type             X           Y           Z
 ---------------------------------------------------------------------
      1         16           0       -1.168191    0.000000    0.000000
      2         16           0        1.168191    0.000000    0.000000
      3          1           0       -1.261483   -1.339658   -0.016905
      4          1           0        1.261001    0.056462    1.338764
 ---------------------------------------------------------------------

 Alpha  occ. eigenvalues --  -89.93511 -89.93510  -8.29792  -8.29789  -6.21946
 Alpha  occ. eigenvalues --   -6.21940  -6.21684  -6.21684  -6.21181  -6.21181
 Alpha  occ. eigenvalues --   -0.86519  -0.77564  -0.49484  -0.47182  -0.40107
 Alpha  occ. eigenvalues --   -0.32988  -0.32665
 Alpha virt. eigenvalues --   -0.07064   0.01627   0.03437   0.04897   0.05005
 Alpha virt. eigenvalues --    0.06004   0.07605   0.07693   0.07773   0.12589
 Alpha virt. eigenvalues --    0.13664   0.30499   0.31701   0.32925   0.33424

  Beta  occ. eigenvalues --  -89.93511 -89.93510  -8.29792  -8.29789  -6.21946
  Beta  occ. eigenvalues --   -6.21940  -6.21684  -6.21684  -6.21181  -6.21181
  Beta  occ. eigenvalues --   -0.86519  -0.77564  -0.49484  -0.47182  -0.40107
  Beta  occ. eigenvalues --   -0.32988  -0.32665
  Beta virt. eigenvalues --   -0.07064   0.01627   0.03437   0.04897   0.05005
  Beta virt. eigenvalues --    0.06004   0.07605   0.07693   0.07773   0.12589
  Beta virt. eigenvalues --    0.13664   0.30499   0.31701   0.32925   0.33424

 Mulliken charges and spin densities:
               1          2
     1  S   -0.089319  -0.000000
     2  S   -0.089201   0.000000
     3  H    0.089253   0.000000
     4  H    0.089267   0.000000
 Sum of Mulliken charges =  -0.00000   0.00000

 Dipole moment (field-independent basis, Debye):
    X=              0.0002    Y=             -1.0207    Z=              1.0513  Tot=              1.4653
 Quadrupole moment (field-independent basis, Debye-Ang):
   XX=            -26.5189   YY=            -27.4724   ZZ=            -27.4854
   XY=              1.8396   XZ=              1.7850   YZ=              0.2291

 Normal termination of Gaussian 16 at Mon Apr 21 21:14:41 2025.
