 Gaussian 16, Revision A.03,
 Gaussian 16:  ES64L-G16RevA.03 25-Dec-2016

 --------------------------------------------
 #p opt UM062X/6-311+G** nosymm int=superfine
 --------------------------------------------

 -------------------
 Title Card Required
 -------------------
 Symbolic Z-matrix:
 Charge = -1 Multiplicity = 2

 SCF Done:  E(UM062X) =  -50.5527907164     A.U. after   16 cycles
 SCF Done:  E(UM062X) =  -50.5578615686     A.U. after   15 cycles
 SCF Done:  E(UM062X) =  -50.5582668519     A.U. after   18 cycles
 Optimization completed.
    -- Stationary point found.

                          Input orientation:
 ---------------------------------------------------------------------
 Center     Atomic      Atomic             Coordinates (Angstroms)
 Number     Number       Type             X           Y           Z
 ---------------------------------------------------------------------
      1          5           0       -1.691404    0.000000    0.000000
      2          5           0        1.691404    0.000000    0.000000
      3          1           0       -2.969357   -0.000966    0.000001
      4          1           0        2.969357    0.000966   -0.000000
 ---------------------------------------------------------------------

 Alpha  occ. eigenvalues --   -6.90554  -6.90554  -0.33960  -0.33628  -0.10252
 Alpha  occ. eigenvalues --   -0.04583   0.02450
 Alpha virt. eigenvalues --    0.11724   0.12482   0.14501   0.15714   0.16361
 Alpha virt. eigenvalues --    0.21984   0.22136   0.22378   0.22740   0.23700
 Alpha virt. eigenvalues --    0.25845   0.34273   0.37822   0.52353   0.57958

  Beta  occ. eigenvalues --   -6.90477  -6.90477  -0.32906  -0.32714  -0.09080
  Beta  occ. eigenvalues --   -0.03602
  Beta virt. eigenvalues --    0.10381   0.11420   0.12800   0.13391   0.13511
  Beta virt. eigenvalues --    0.14016   0.19120   0.20311   0.20551   0.21403
  Beta virt. eigenvalues --    0.21802   0.22480   0.33997   0.37867   0.51983

 Mulliken charges and spin densities:
               1          2
     1  B   -0.403262   0.509127
     2  B   -0.403262   0.509127
     3  H   -0.096738  -0.009127
     4  H   -0.096738  -0.009127
 Sum of Mulliken charges =  -1.00000   1.00000

 Dipole moment (field-independent basis, Debye):
    X=              0.0000    Y=             -0.0000    Z=              0.0000  Tot=              0.0000
 Quadrupole moment (field-independent basis, Debye-Ang):
   XX=            -37.7759   YY=            -19.2569   ZZ=            -26.8757
   XY=             -0.0016   XZ=              0.0000   YZ=             -0.0054

 Normal termination of Gaussian 16 at Mon Apr 21 17:32:42 2025.
