 Gaussian 16, Revision A.03,
 Gaussian 16:  ES64L-G16RevA.03 25-Dec-2016

 ---------------------------------------
 #p UM062X/6-311+G** force int=superfine
 ---------------------------------------

 -------------------
 Title Card Required
 -------------------
 Symbolic Z-matrix:
 Charge =  1 Multiplicity = 2

                         Standard orientation:
 ---------------------------------------------------------------------
 Center     Atomic      Atomic             Coordinates (Angstroms)
 Number     Number       Type             X           Y           Z
 ---------------------------------------------------------------------
      1          7           0        0.000000    0.000000    1.705391
      2          7           0        0.000000    0.000000   -1.705391
 ---------------------------------------------------------------------

 SCF Done:  E(UM062X) =  -108.347664948     A.U. after   10 cycles

 Unable to determine electronic state:  partially filled degenerate orbitals.
 Alpha  occ. eigenvalues --  -15.31427 -15.31423  -1.20051  -1.19325  -0.65902
 Alpha  occ. eigenvalues --   -0.64392  -0.63276
 Alpha virt. eigenvalues --   -0.57421  -0.54774  -0.53842  -0.12908  -0.08157
 Alpha virt. eigenvalues --   -0.08040  -0.07884  -0.03946  -0.02904  -0.02715
 Alpha virt. eigenvalues --    0.03823   0.50233   0.51057   0.52273   0.52599

  Beta  occ. eigenvalues --  -15.30937 -15.30934  -1.16309  -1.15664  -0.62657
  Beta  occ. eigenvalues --   -0.61499
  Beta virt. eigenvalues --   -0.52974  -0.51947  -0.44193  -0.43742  -0.13860
  Beta virt. eigenvalues --   -0.08921  -0.08308  -0.07945  -0.04215  -0.03220
  Beta virt. eigenvalues --   -0.02946   0.02560   0.50407   0.52077   0.52434

 Mulliken charges and spin densities:
               1          2
     1  N    0.500000   0.500000
     2  N    0.500000   0.500000
 Sum of Mulliken charges =   1.00000   1.00000

 Dipole moment (field-independent basis, Debye):
    X=              0.0000    Y=             -0.0000    Z=              0.0000  Tot=              0.0000
 Quadrupole moment (field-independent basis, Debye-Ang):
   XX=            -10.0123   YY=             -8.5674   ZZ=              5.4970
   XY=             -0.0000   XZ=             -0.0000   YZ=             -0.0000

 Optimization completed.
    -- Stationary point found.
 Normal termination of Gaussian 16 at Wed Feb 26 14:02:00 2025.
