 Gaussian 16, Revision A.03,
 Gaussian 16:  ES64L-G16RevA.03 25-Dec-2016

 --------------------------------------------
 #p opt UM062X/6-311+G** nosymm int=superfine
 --------------------------------------------

 -------------------
 Title Card Required
 -------------------
 Symbolic Z-matrix:
 Charge =  0 Multiplicity = 1

 SCF Done:  E(UM062X) =  -83.1534699271     A.U. after   10 cycles
 SCF Done:  E(UM062X) =  -83.1617173663     A.U. after    9 cycles
 SCF Done:  E(UM062X) =  -83.1622681036     A.U. after    9 cycles
 SCF Done:  E(UM062X) =  -83.1622697621     A.U. after    7 cycles
 SCF Done:  E(UM062X) =  -83.1622705949     A.U. after    7 cycles
 Optimization completed.
    -- Stationary point found.

                          Input orientation:
 ---------------------------------------------------------------------
 Center     Atomic      Atomic             Coordinates (Angstroms)
 Number     Number       Type             X           Y           Z
 ---------------------------------------------------------------------
      1          5           0       -1.177429    0.000000    0.000000
      2          7           0        1.177429    0.000000    0.000000
      3          1           0        1.524950   -0.951429   -0.000001
      4          1           0       -1.286031   -0.593436    1.027843
      5          1           0        1.524719    0.475817   -0.824004
      6          1           0        1.524710    0.475812    0.824010
      7          1           0       -1.286010    1.186858    0.000012
      8          1           0       -1.286035   -0.593415   -1.027855
 ---------------------------------------------------------------------

 Alpha  occ. eigenvalues --  -14.76702  -7.01313  -0.99369  -0.57307  -0.57306
 Alpha  occ. eigenvalues --   -0.55477  -0.37842  -0.37176  -0.37176
 Alpha virt. eigenvalues --   -0.00098   0.03131   0.04755   0.04755   0.08126
 Alpha virt. eigenvalues --    0.09764   0.11056   0.11056   0.16475   0.16476
 Alpha virt. eigenvalues --    0.17407   0.20701   0.20702   0.23520   0.30374

  Beta  occ. eigenvalues --  -14.76702  -7.01313  -0.99369  -0.57307  -0.57306
  Beta  occ. eigenvalues --   -0.55477  -0.37842  -0.37176  -0.37176
  Beta virt. eigenvalues --   -0.00098   0.03131   0.04755   0.04755   0.08126
  Beta virt. eigenvalues --    0.09764   0.11056   0.11056   0.16475   0.16476
  Beta virt. eigenvalues --    0.17407   0.20701   0.20702   0.23520   0.30374

 Mulliken charges and spin densities:
               1          2
     1  B   -0.013033  -0.000000
     2  N   -0.723613  -0.000000
     3  H    0.273243  -0.000000
     4  H   -0.027694   0.000000
     5  H    0.273246   0.000000
     6  H    0.273247   0.000000
     7  H   -0.027701   0.000000
     8  H   -0.027694   0.000000
 Sum of Mulliken charges =  -0.00000   0.00000

 Dipole moment (field-independent basis, Debye):
    X=              3.4112    Y=              0.0002    Z=              0.0000  Tot=              3.4112
 Quadrupole moment (field-independent basis, Debye-Ang):
   XX=            -13.7438   YY=            -15.8791   ZZ=            -15.8792
   XY=             -0.0001   XZ=             -0.0000   YZ=             -0.0000

 Normal termination of Gaussian 16 at Mon Apr 21 17:36:40 2025.
