 Gaussian 16, Revision A.03,
 Gaussian 16:  ES64L-G16RevA.03 25-Dec-2016

 --------------------------------------------
 #p opt UM062X/6-311+G** nosymm int=superfine
 --------------------------------------------

 -------------------
 Title Card Required
 -------------------
 Symbolic Z-matrix:
 Charge =  0 Multiplicity = 1

 SCF Done:  E(UM062X) =  -474.405369804     A.U. after   19 cycles
 SCF Done:  E(UM062X) =  -474.407361298     A.U. after   17 cycles
 SCF Done:  E(UM062X) =  -474.409672822     A.U. after   19 cycles
 SCF Done:  E(UM062X) =  -474.409729817     A.U. after   17 cycles
 SCF Done:  E(UM062X) =  -474.409743189     A.U. after   17 cycles
 SCF Done:  E(UM062X) =  -474.409744336     A.U. after   14 cycles
 SCF Done:  E(UM062X) =  -474.409744826     A.U. after   20 cycles
 SCF Done:  E(UM062X) =  -474.409744928     A.U. after   21 cycles
 SCF Done:  E(UM062X) =  -474.409744925     A.U. after   18 cycles
 Optimization completed.
    -- Stationary point found.

                          Input orientation:
 ---------------------------------------------------------------------
 Center     Atomic      Atomic             Coordinates (Angstroms)
 Number     Number       Type             X           Y           Z
 ---------------------------------------------------------------------
      1          8           0       -1.489392    0.000000    0.000000
      2         16           0        1.489392    0.000000    0.000000
      3          1           0       -1.481078   -0.917807   -0.314129
      4          1           0        1.322452    0.454713    1.256222
 ---------------------------------------------------------------------

 Alpha  occ. eigenvalues --  -89.97826 -19.67509  -8.33917  -6.26136  -6.25761
 Alpha  occ. eigenvalues --   -6.25200  -1.08604  -0.83601  -0.52643  -0.49454
 Alpha  occ. eigenvalues --   -0.39871  -0.36281  -0.35424
 Alpha virt. eigenvalues --   -0.20113   0.01617   0.04005   0.04646   0.05548
 Alpha virt. eigenvalues --    0.07148   0.14236   0.19405   0.19924   0.21352
 Alpha virt. eigenvalues --    0.25901   0.31030   0.33959   0.35264   0.39655

  Beta  occ. eigenvalues --  -89.97826 -19.67509  -8.33917  -6.26136  -6.25761
  Beta  occ. eigenvalues --   -6.25200  -1.08604  -0.83601  -0.52643  -0.49454
  Beta  occ. eigenvalues --   -0.39871  -0.36281  -0.35424
  Beta virt. eigenvalues --   -0.20113   0.01617   0.04005   0.04646   0.05548
  Beta virt. eigenvalues --    0.07148   0.14236   0.19405   0.19924   0.21352
  Beta virt. eigenvalues --    0.25901   0.31030   0.33959   0.35264   0.39655

 Mulliken charges and spin densities:
               1          2
     1  O   -0.414760   0.000000
     2  S    0.054669  -0.000000
     3  H    0.248836   0.000000
     4  H    0.111255   0.000000
 Sum of Mulliken charges =  -0.00000  -0.00000

 Dipole moment (field-independent basis, Debye):
    X=              2.0987    Y=             -1.2297    Z=              0.5498  Tot=              2.4938
 Quadrupole moment (field-independent basis, Debye-Ang):
   XX=            -18.1864   YY=            -19.9458   ZZ=            -18.7588
   XY=              3.2436   XZ=              2.5655   YZ=              2.0923

 Normal termination of Gaussian 16 at Thu May 15 13:05:22 2025.
