 Gaussian 16, Revision A.03,
 Gaussian 16:  ES64L-G16RevA.03 25-Dec-2016

 ---------------------------------------------------------
 #p opt UM062X/6-311+G** nosymm int=superfine SCF=NoVarAcc
 ---------------------------------------------------------

 -------------------
 Title Card Required
 -------------------
 Symbolic Z-matrix:
 Charge =  1 Multiplicity = 2

 SCF Done:  E(UM062X) =  -77.8812487665     A.U. after    9 cycles
 SCF Done:  E(UM062X) =  -77.8821202599     A.U. after   11 cycles
 SCF Done:  E(UM062X) =  -77.8826062128     A.U. after   13 cycles
 SCF Done:  E(UM062X) =  -77.8826085071     A.U. after   10 cycles
 Optimization completed.
    -- Stationary point found.

                          Input orientation:
 ---------------------------------------------------------------------
 Center     Atomic      Atomic             Coordinates (Angstroms)
 Number     Number       Type             X           Y           Z
 ---------------------------------------------------------------------
      1          6           0       -1.556027    0.000000    0.000000
      2          6           0        1.556027    0.000000    0.000000
      3          1           0       -1.928296   -1.020359    0.000001
      4          1           0       -1.928274    1.020368    0.000001
      5          1           0        1.928297    1.020359   -0.000001
      6          1           0        1.928274   -1.020368   -0.000001
 ---------------------------------------------------------------------

 Alpha  occ. eigenvalues --  -10.91508 -10.91504  -1.01868  -1.00819  -0.79051
 Alpha  occ. eigenvalues --   -0.78742  -0.54420  -0.49758
 Alpha virt. eigenvalues --   -0.39839  -0.37325  -0.12978  -0.10485  -0.10471
 Alpha virt. eigenvalues --   -0.07534  -0.07422  -0.06113  -0.04847  -0.04418
 Alpha virt. eigenvalues --   -0.02979   0.01572   0.02096   0.09343   0.22095

  Beta  occ. eigenvalues --  -10.91238 -10.91236  -0.99094  -0.98254  -0.78693
  Beta  occ. eigenvalues --   -0.78392  -0.52438
  Beta virt. eigenvalues --   -0.35133  -0.31101  -0.29462  -0.13953  -0.10881
  Beta virt. eigenvalues --   -0.10768  -0.07395  -0.07322  -0.06097  -0.04418
  Beta virt. eigenvalues --   -0.03879  -0.03397  -0.00170   0.02261   0.10228

 Mulliken charges and spin densities:
               1          2
     1  C   -0.060912   0.540658
     2  C   -0.060911   0.540654
     3  H    0.280456  -0.020328
     4  H    0.280456  -0.020328
     5  H    0.280456  -0.020328
     6  H    0.280456  -0.020328
 Sum of Mulliken charges =   1.00000   1.00000

 Dipole moment (field-independent basis, Debye):
    X=              0.0000    Y=              0.0000    Z=             -0.0000  Tot=              0.0000
 Quadrupole moment (field-independent basis, Debye-Ang):
   XX=              6.8973   YY=             -7.7275   ZZ=            -13.0311
   XY=              0.0000   XZ=             -0.0000   YZ=              0.0000

 Normal termination of Gaussian 16 at Tue Dec  3 13:26:54 2024.
