 Gaussian 16, Revision A.03,
 Gaussian 16:  ES64L-G16RevA.03 25-Dec-2016

 --------------------------------------------
 #p opt UM062X/6-311+G** nosymm int=superfine
 --------------------------------------------

 -------------------
 Title Card Required
 -------------------
 Symbolic Z-matrix:
 Charge =  0 Multiplicity = 1

 SCF Done:  E(UM062X) =  -77.1010516507     A.U. after    9 cycles
 SCF Done:  E(UM062X) =  -77.1421545785     A.U. after    9 cycles
 SCF Done:  E(UM062X) =  -77.1784427247     A.U. after   10 cycles
 SCF Done:  E(UM062X) =  -77.1786970369     A.U. after    8 cycles
 Optimization completed.
    -- Stationary point found.

                          Input orientation:
 ---------------------------------------------------------------------
 Center     Atomic      Atomic             Coordinates (Angstroms)
 Number     Number       Type             X           Y           Z
 ---------------------------------------------------------------------
      1          6           0       -0.772085    0.000000    0.000000
      2          6           0        0.772085    0.000000    0.000000
      3          1           0       -1.844631   -0.000000   -0.000000
      4          1           0        1.844638   -0.000000   -0.000000
 ---------------------------------------------------------------------

 Alpha  occ. eigenvalues --  -10.63345 -10.63298  -0.79290  -0.68495  -0.54732
 Alpha  occ. eigenvalues --   -0.31483  -0.31483
 Alpha virt. eigenvalues --   -0.01944  -0.01944   0.01570   0.02374   0.08220
 Alpha virt. eigenvalues --    0.08220   0.09421   0.09521   0.11565   0.11565
 Alpha virt. eigenvalues --    0.18021   0.23132   0.30455   0.46300   0.58732

  Beta  occ. eigenvalues --  -10.63345 -10.63298  -0.79290  -0.68495  -0.54732
  Beta  occ. eigenvalues --   -0.31483  -0.31483
  Beta virt. eigenvalues --   -0.01944  -0.01944   0.01570   0.02374   0.08220
  Beta virt. eigenvalues --    0.08220   0.09421   0.09521   0.11565   0.11565
  Beta virt. eigenvalues --    0.18021   0.23132   0.30455   0.46300   0.58732

 Mulliken charges and spin densities:
               1          2
     1  C   -0.229833   0.000000
     2  C   -0.229833  -0.000000
     3  H    0.229832  -0.000000
     4  H    0.229834  -0.000000
 Sum of Mulliken charges =  -0.00000   0.00000

 Dipole moment (field-independent basis, Debye):
    X=              0.0000    Y=             -0.0000    Z=             -0.0000  Tot=              0.0000
 Quadrupole moment (field-independent basis, Debye-Ang):
   XX=             -5.5929   YY=            -15.2694   ZZ=            -15.2694
   XY=             -0.0000   XZ=              0.0000   YZ=              0.0000

 Normal termination of Gaussian 16 at Tue Dec  3 20:10:21 2024.
