 Gaussian 16, Revision A.03,
 Gaussian 16:  ES64L-G16RevA.03 25-Dec-2016

 --------------------------------------------
 #p opt UM062X/6-311+G** nosymm int=superfine
 --------------------------------------------

 -------------------
 Title Card Required
 -------------------
 Symbolic Z-matrix:
 Charge =  0 Multiplicity = 1

 SCF Done:  E(UM062X) =  -83.1204537375     A.U. after   10 cycles
 SCF Done:  E(UM062X) =  -83.1363778880     A.U. after    9 cycles
 SCF Done:  E(UM062X) =  -83.1400369105     A.U. after    9 cycles
 SCF Done:  E(UM062X) =  -83.1400659506     A.U. after    7 cycles
 Optimization completed.
    -- Stationary point found.

                          Input orientation:
 ---------------------------------------------------------------------
 Center     Atomic      Atomic             Coordinates (Angstroms)
 Number     Number       Type             X           Y           Z
 ---------------------------------------------------------------------
      1          5           0       -2.077429    0.000000    0.000000
      2          7           0        2.077429    0.000000    0.000000
      3          1           0        2.441998   -0.945090    0.000002
      4          1           0       -2.087091   -0.593891    1.028619
      5          1           0        2.441895    0.472594   -0.818494
      6          1           0        2.441882    0.472593    0.818500
      7          1           0       -2.087087    1.187754    0.000013
      8          1           0       -2.087108   -0.593870   -1.028630
 ---------------------------------------------------------------------

 Alpha  occ. eigenvalues --  -14.72748  -7.04417  -0.96041  -0.57673  -0.53870
 Alpha  occ. eigenvalues --   -0.53870  -0.40081  -0.40081  -0.34098
 Alpha virt. eigenvalues --   -0.02305   0.02669   0.04753   0.04753   0.04933
 Alpha virt. eigenvalues --    0.08544   0.10629   0.10629   0.16948   0.18029
 Alpha virt. eigenvalues --    0.18029   0.19002   0.19002   0.22100   0.27300

  Beta  occ. eigenvalues --  -14.72748  -7.04417  -0.96041  -0.57673  -0.53870
  Beta  occ. eigenvalues --   -0.53870  -0.40081  -0.40081  -0.34098
  Beta virt. eigenvalues --   -0.02305   0.02669   0.04753   0.04753   0.04933
  Beta virt. eigenvalues --    0.08544   0.10629   0.10629   0.16948   0.18029
  Beta virt. eigenvalues --    0.18029   0.19002   0.19002   0.22100   0.27300

 Mulliken charges and spin densities:
               1          2
     1  B    0.022358  -0.000000
     2  N   -0.730331   0.000000
     3  H    0.244500  -0.000000
     4  H   -0.008513  -0.000000
     5  H    0.244499  -0.000000
     6  H    0.244499  -0.000000
     7  H   -0.008500   0.000000
     8  H   -0.008513   0.000000
 Sum of Mulliken charges =  -0.00000  -0.00000

 Dipole moment (field-independent basis, Debye):
    X=              1.8981    Y=              0.0002    Z=              0.0000  Tot=              1.8981
 Quadrupole moment (field-independent basis, Debye-Ang):
   XX=             -9.4965   YY=            -15.6269   ZZ=            -15.6270
   XY=              0.0001   XZ=             -0.0000   YZ=              0.0000

 Normal termination of Gaussian 16 at Mon Apr 21 17:36:03 2025.
