 Gaussian 16, Revision A.03,
 Gaussian 16:  ES64L-G16RevA.03 25-Dec-2016

 --------------------------------------------
 #p opt UM062X/6-311+G** nosymm int=superfine
 --------------------------------------------

 -------------------
 Title Card Required
 -------------------
 Symbolic Z-matrix:
 Charge =  0 Multiplicity = 1

 SCF Done:  E(UM062X) =  -582.403136459     A.U. after   10 cycles
 SCF Done:  E(UM062X) =  -582.405137250     A.U. after    8 cycles
 SCF Done:  E(UM062X) =  -582.405594900     A.U. after    9 cycles
 Optimization completed.
    -- Stationary point found.

                          Input orientation:
 ---------------------------------------------------------------------
 Center     Atomic      Atomic             Coordinates (Angstroms)
 Number     Number       Type             X           Y           Z
 ---------------------------------------------------------------------
      1         14           0       -2.019819    0.000000    0.000000
      2         14           0        2.019819    0.000000    0.000000
      3          1           0        2.435880   -1.415713   -0.000056
      4          1           0       -2.435863   -0.707749    1.226121
      5          1           0        2.435981    0.707921   -1.225981
      6          1           0        2.435871    0.707801    1.226088
      7          1           0       -2.435883    1.415712   -0.000113
      8          1           0       -2.435987   -0.707975   -1.225948
 ---------------------------------------------------------------------

 Alpha  occ. eigenvalues --  -67.01727 -67.01727  -5.56585  -5.56583  -3.87811
 Alpha  occ. eigenvalues --   -3.87810  -3.87594  -3.87593  -3.87593  -3.87593
 Alpha  occ. eigenvalues --   -0.61089  -0.60551  -0.41916  -0.41915  -0.41759
 Alpha  occ. eigenvalues --   -0.41759  -0.23354
 Alpha virt. eigenvalues --   -0.08909   0.02145   0.02915   0.02915   0.03410
 Alpha virt. eigenvalues --    0.05225   0.05225   0.05612   0.06992   0.07325
 Alpha virt. eigenvalues --    0.07325   0.08894   0.08895   0.13025   0.16362

  Beta  occ. eigenvalues --  -67.01727 -67.01727  -5.56585  -5.56583  -3.87811
  Beta  occ. eigenvalues --   -3.87810  -3.87594  -3.87593  -3.87593  -3.87593
  Beta  occ. eigenvalues --   -0.61089  -0.60551  -0.41916  -0.41915  -0.41759
  Beta  occ. eigenvalues --   -0.41759  -0.23354
  Beta virt. eigenvalues --   -0.08909   0.02145   0.02915   0.02915   0.03410
  Beta virt. eigenvalues --    0.05225   0.05225   0.05612   0.06992   0.07325
  Beta virt. eigenvalues --    0.07325   0.08894   0.08895   0.13025   0.16362

 Mulliken charges and spin densities:
               1          2
     1  Si   0.274077   0.000000
     2  Si   0.274077  -0.000000
     3  H   -0.091358   0.000000
     4  H   -0.091359  -0.000000
     5  H   -0.091359   0.000000
     6  H   -0.091359   0.000000
     7  H   -0.091358  -0.000000
     8  H   -0.091360  -0.000000
 Sum of Mulliken charges =  -0.00000  -0.00000

 Dipole moment (field-independent basis, Debye):
    X=              0.0000    Y=             -0.0000    Z=              0.0000  Tot=              0.0000
 Quadrupole moment (field-independent basis, Debye-Ang):
   XX=            -28.7450   YY=            -32.0534   ZZ=            -32.0534
   XY=             -0.0001   XZ=              0.0000   YZ=              0.0000

 Normal termination of Gaussian 16 at Mon Apr 21 20:20:32 2025.
