 Gaussian 16, Revision A.03,
 Gaussian 16:  ES64L-G16RevA.03 25-Dec-2016

 ---------------------------------------------------
 #p UM062X/6-311+G** force int=superfine pop=saveNBO
 ---------------------------------------------------

 -------------------
 Title Card Required
 -------------------
 Symbolic Z-matrix:
 Charge =  0 Multiplicity = 1

                         Standard orientation:
 ---------------------------------------------------------------------
 Center     Atomic      Atomic             Coordinates (Angstroms)
 Number     Number       Type             X           Y           Z
 ---------------------------------------------------------------------
      1          6           0        0.000000    0.000000   -0.669808
      2          8           0        0.000000    0.000000    0.502356
 ---------------------------------------------------------------------

 SCF Done:  E(UM062X) =  -113.304505446     A.U. after    9 cycles

 The electronic state is 1-SG.
 Alpha  occ. eigenvalues --  -19.73878 -10.67912  -1.27184  -0.67421  -0.54185
 Alpha  occ. eigenvalues --   -0.54185  -0.45666
 Alpha virt. eigenvalues --   -0.00437  -0.00437   0.03474   0.06394   0.07619
 Alpha virt. eigenvalues --    0.07619   0.19397   0.22525   0.22525   0.28797
 Alpha virt. eigenvalues --    0.41233   0.56214   0.56214   0.67447   0.87443

  Beta  occ. eigenvalues --  -19.73878 -10.67912  -1.27184  -0.67421  -0.54185
  Beta  occ. eigenvalues --   -0.54185  -0.45666
  Beta virt. eigenvalues --   -0.00437  -0.00437   0.03474   0.06394   0.07619
  Beta virt. eigenvalues --    0.07619   0.19397   0.22525   0.22525   0.28797
  Beta virt. eigenvalues --    0.41233   0.56214   0.56214   0.67447   0.87443

 Mulliken charges and spin densities:
               1          2
     1  C    0.043549   0.000000
     2  O   -0.043549  -0.000000
 Sum of Mulliken charges =   0.00000  -0.00000

 Dipole moment (field-independent basis, Debye):
    X=              0.0000    Y=              0.0000    Z=             -0.1952  Tot=              0.1952
 Quadrupole moment (field-independent basis, Debye-Ang):
   XX=            -10.3870   YY=            -10.3870   ZZ=            -12.3672
   XY=              0.0000   XZ=              0.0000   YZ=              0.0000

 Summary of Natural Population Analysis:

                                       Natural Population
                Natural  -----------------------------------------------
    Atom  No    Charge         Core      Valence    Rydberg      Total
 -----------------------------------------------------------------------
      C    1    0.25744      0.99992     1.71687    0.02577     2.74256
      O    2   -0.25744      0.99990     3.24961    0.00793     4.25744
 =======================================================================
   * Total *    0.00000      1.99982     4.96648    0.03370     7.00000

 Normal termination of Gaussian 16 at Mon Apr 21 19:28:06 2025.
