 Gaussian 16, Revision A.03,
 Gaussian 16:  ES64L-G16RevA.03 25-Dec-2016

 --------------------------------------------
 #p opt UM062X/6-311+G** nosymm int=superfine
 --------------------------------------------

 -------------------
 Title Card Required
 -------------------
 Symbolic Z-matrix:
 Charge =  0 Multiplicity = 1

 SCF Done:  E(UM062X) =  -115.458423730     A.U. after   16 cycles
 SCF Done:  E(UM062X) =  -115.474789228     A.U. after   13 cycles
 SCF Done:  E(UM062X) =  -115.484746135     A.U. after   13 cycles
 SCF Done:  E(UM062X) =  -115.484915324     A.U. after   12 cycles
 SCF Done:  E(UM062X) =  -115.485035421     A.U. after   12 cycles
 SCF Done:  E(UM062X) =  -115.485140344     A.U. after   12 cycles
 SCF Done:  E(UM062X) =  -115.485164580     A.U. after   12 cycles
 SCF Done:  E(UM062X) =  -115.485166895     A.U. after    8 cycles
 Optimization completed.
    -- Stationary point found.

                          Input orientation:
 ---------------------------------------------------------------------
 Center     Atomic      Atomic             Coordinates (Angstroms)
 Number     Number       Type             X           Y           Z
 ---------------------------------------------------------------------
      1          6           0       -1.682203    0.000000    0.000000
      2          8           0        1.682203    0.000000    0.000000
      3          1           0        1.719009   -0.964999    0.000548
      4          1           0       -1.754648   -0.533158    0.937981
      5          1           0       -1.594517    1.077775   -0.000676
      6          1           0       -1.754598   -0.534336   -0.937315
 ---------------------------------------------------------------------

 Alpha  occ. eigenvalues --  -19.58560 -10.67038  -1.00945  -0.84722  -0.56850
 Alpha  occ. eigenvalues --   -0.56617  -0.45481  -0.32436  -0.28389
 Alpha virt. eigenvalues --   -0.16290   0.00419   0.03784   0.04104   0.06686
 Alpha virt. eigenvalues --    0.13484   0.14894   0.15081   0.19794   0.22908
 Alpha virt. eigenvalues --    0.23025   0.24890   0.28599   0.39172   0.39427

  Beta  occ. eigenvalues --  -19.58560 -10.67038  -1.00945  -0.84722  -0.56850
  Beta  occ. eigenvalues --   -0.56617  -0.45481  -0.32436  -0.28389
  Beta virt. eigenvalues --   -0.16290   0.00419   0.03784   0.04104   0.06686
  Beta virt. eigenvalues --    0.13484   0.14894   0.15081   0.19794   0.22908
  Beta virt. eigenvalues --    0.23025   0.24890   0.28599   0.39172   0.39427

 Mulliken charges and spin densities:
               1          2
     1  C   -0.290899   0.000001
     2  O   -0.567284  -0.000001
     3  H    0.211550   0.000000
     4  H    0.210841  -0.000000
     5  H    0.224950  -0.000000
     6  H    0.210841  -0.000000
 Sum of Mulliken charges =  -0.00000   0.00000

 Dipole moment (field-independent basis, Debye):
    X=             -5.9092    Y=             -1.5675    Z=              0.0009  Tot=              6.1136
 Quadrupole moment (field-independent basis, Debye-Ang):
   XX=            -13.2582   YY=            -11.4790   ZZ=            -13.8981
   XY=             -2.8178   XZ=              0.0015   YZ=             -0.0014

 Normal termination of Gaussian 16 at Mon Apr 21 18:44:25 2025.
