 Gaussian 16, Revision A.03,
 Gaussian 16:  ES64L-G16RevA.03 25-Dec-2016

 --------------------------------------------
 #p opt UM062X/6-311+G** nosymm int=superfine
 --------------------------------------------

 -------------------
 Title Card Required
 -------------------
 Symbolic Z-matrix:
 Charge =  1 Multiplicity = 2

 SCF Done:  E(UM062X) =  -79.3115340675     A.U. after   10 cycles
 SCF Done:  E(UM062X) =  -79.3135244483     A.U. after    9 cycles
 SCF Done:  E(UM062X) =  -79.3135549227     A.U. after    9 cycles
 Optimization completed.
    -- Stationary point found.

                          Input orientation:
 ---------------------------------------------------------------------
 Center     Atomic      Atomic             Coordinates (Angstroms)
 Number     Number       Type             X           Y           Z
 ---------------------------------------------------------------------
      1          6           0       -2.239875    0.000000    0.000000
      2          6           0        2.239875    0.000000    0.000000
      3          1           0        2.261233   -0.937306    0.542501
      4          1           0       -2.259196   -0.938399   -0.540677
      5          1           0        2.260349    0.938495    0.540473
      6          1           0        2.259228   -0.001173   -1.083013
      7          1           0       -2.261296    0.937417   -0.542308
      8          1           0       -2.260317    0.000953    1.082995
 ---------------------------------------------------------------------

 Alpha  occ. eigenvalues --  -10.82708 -10.82707  -1.01346  -1.01170  -0.72469
 Alpha  occ. eigenvalues --   -0.72468  -0.72429  -0.72429  -0.45737
 Alpha virt. eigenvalues --   -0.37918  -0.12211  -0.09993  -0.08925  -0.08925
 Alpha virt. eigenvalues --   -0.06186  -0.06186  -0.04472  -0.02438   0.00765
 Alpha virt. eigenvalues --    0.00768   0.01590   0.01592   0.02210   0.09235

  Beta  occ. eigenvalues --  -10.82480 -10.82479  -0.98677  -0.98605  -0.71926
  Beta  occ. eigenvalues --   -0.71925  -0.71881  -0.71880
  Beta virt. eigenvalues --   -0.30873  -0.26682  -0.17023  -0.10251  -0.09989
  Beta virt. eigenvalues --   -0.09988  -0.06105  -0.06105  -0.05833  -0.01463
  Beta virt. eigenvalues --    0.00740   0.00743   0.01835   0.01838   0.02277

 Mulliken charges and spin densities:
               1          2
     1  C   -0.231753   0.560241
     2  C   -0.231754   0.560240
     3  H    0.243935  -0.020079
     4  H    0.243900  -0.020079
     5  H    0.243920  -0.020081
     6  H    0.243899  -0.020080
     7  H    0.243936  -0.020079
     8  H    0.243917  -0.020083
 Sum of Mulliken charges =   1.00000   1.00000

 Dipole moment (field-independent basis, Debye):
    X=             -0.0000    Y=             -0.0000    Z=             -0.0000  Tot=              0.0000
 Quadrupole moment (field-independent basis, Debye-Ang):
   XX=             12.3299   YY=            -11.1230   ZZ=            -11.1231
   XY=             -0.0022   XZ=              0.0013   YZ=              0.0000

 Normal termination of Gaussian 16 at Sat Nov 16 16:12:56 2024.
