 Gaussian 16, Revision A.03,
 Gaussian 16:  ES64L-G16RevA.03 25-Dec-2016

 --------------------------------------------
 #p opt UM062X/6-311+G** nosymm int=superfine
 --------------------------------------------

 -------------------
 Title Card Required
 -------------------
 Symbolic Z-matrix:
 Charge =  1 Multiplicity = 2

 SCF Done:  E(UM062X) =  -78.1382653084     A.U. after    9 cycles
 SCF Done:  E(UM062X) =  -78.1506087735     A.U. after    9 cycles
 SCF Done:  E(UM062X) =  -78.1520717211     A.U. after    8 cycles
 SCF Done:  E(UM062X) =  -78.1521319201     A.U. after    7 cycles
 Optimization completed.
    -- Stationary point found.

                          Input orientation:
 ---------------------------------------------------------------------
 Center     Atomic      Atomic             Coordinates (Angstroms)
 Number     Number       Type             X           Y           Z
 ---------------------------------------------------------------------
      1          6           0       -0.827064    0.000000    0.000000
      2          6           0        0.827064    0.000000    0.000000
      3          1           0       -1.341444   -0.955339   -0.000000
      4          1           0       -1.341536    0.955299   -0.000000
      5          1           0        1.341444    0.955339    0.000000
      6          1           0        1.341536   -0.955299    0.000000
 ---------------------------------------------------------------------

 Alpha  occ. eigenvalues --  -10.91069 -10.91035  -1.12275  -0.98813  -0.82510
 Alpha  occ. eigenvalues --   -0.75287  -0.74567  -0.61576
 Alpha virt. eigenvalues --   -0.33027  -0.14502  -0.14309  -0.11576  -0.09052
 Alpha virt. eigenvalues --   -0.07511  -0.07184  -0.05579  -0.04633  -0.04589
 Alpha virt. eigenvalues --   -0.01784  -0.01300   0.03061   0.09984   0.19023

  Beta  occ. eigenvalues --  -10.90843 -10.90820  -1.08755  -0.96765  -0.81681
  Beta  occ. eigenvalues --   -0.74939  -0.73443
  Beta virt. eigenvalues --   -0.38842  -0.25176  -0.16159  -0.13547  -0.11907
  Beta virt. eigenvalues --   -0.09166  -0.08233  -0.07218  -0.04620  -0.04151
  Beta virt. eigenvalues --   -0.03999  -0.01191  -0.00718   0.02666   0.10494

 Mulliken charges and spin densities:
               1          2
     1  C   -0.060295   0.539270
     2  C   -0.060295   0.539270
     3  H    0.280143  -0.019635
     4  H    0.280152  -0.019634
     5  H    0.280143  -0.019635
     6  H    0.280152  -0.019634
 Sum of Mulliken charges =   1.00000   1.00000

 Dipole moment (field-independent basis, Debye):
    X=             -0.0000    Y=              0.0000    Z=             -0.0000  Tot=              0.0000
 Quadrupole moment (field-independent basis, Debye-Ang):
   XX=             -4.3570   YY=             -8.3609   ZZ=            -11.9686
   XY=             -0.0003   XZ=              0.0000   YZ=             -0.0000

 Normal termination of Gaussian 16 at Tue Nov 19 11:07:25 2024.
