 Gaussian 16, Revision A.03,
 Gaussian 16:  ES64L-G16RevA.03 25-Dec-2016

 --------------------------------------------
 #p opt UM062X/6-311+G** nosymm int=superfine
 --------------------------------------------

 -------------------
 Title Card Required
 -------------------
 Symbolic Z-matrix:
 Charge =  1 Multiplicity = 2

 SCF Done:  E(UM062X) =  -79.3469354080     A.U. after   10 cycles
 SCF Done:  E(UM062X) =  -79.3622556513     A.U. after   10 cycles
 SCF Done:  E(UM062X) =  -79.3629373196     A.U. after   10 cycles
 SCF Done:  E(UM062X) =  -79.3629445016     A.U. after    9 cycles
 Optimization completed.
    -- Stationary point found.

                          Input orientation:
 ---------------------------------------------------------------------
 Center     Atomic      Atomic             Coordinates (Angstroms)
 Number     Number       Type             X           Y           Z
 ---------------------------------------------------------------------
      1          6           0       -0.870270    0.000000    0.000000
      2          6           0        0.870270    0.000000    0.000000
      3          1           0        1.058465   -0.928109    0.537005
      4          1           0       -1.056717   -0.929530   -0.535284
      5          1           0        1.056744    0.929483    0.535355
      6          1           0        1.056713   -0.000930   -1.072638
      7          1           0       -1.058468    0.928064   -0.537083
      8          1           0       -1.056739    0.001017    1.072633
 ---------------------------------------------------------------------

 Alpha  occ. eigenvalues --  -10.86187 -10.86167  -1.15134  -1.00244  -0.81004
 Alpha  occ. eigenvalues --   -0.80991  -0.72462  -0.72458  -0.68440
 Alpha virt. eigenvalues --   -0.17015  -0.15660  -0.11677  -0.11675  -0.08972
 Alpha virt. eigenvalues --   -0.07858  -0.06785  -0.06775  -0.05880  -0.05878
 Alpha virt. eigenvalues --   -0.00907   0.01107   0.01119   0.03547   0.07774

  Beta  occ. eigenvalues --  -10.85942 -10.85940  -1.11757  -0.96537  -0.79766
  Beta  occ. eigenvalues --   -0.79757  -0.71400  -0.71398
  Beta virt. eigenvalues --   -0.44838  -0.16398  -0.13843  -0.11433  -0.11432
  Beta virt. eigenvalues --   -0.08221  -0.06827  -0.06822  -0.05505  -0.05498
  Beta virt. eigenvalues --   -0.04975   0.00722   0.01868   0.01881   0.04164

 Mulliken charges and spin densities:
               1          2
     1  C   -0.329438   0.517571
     2  C   -0.329438   0.517571
     3  H    0.276432  -0.006141
     4  H    0.276503  -0.005715
     5  H    0.276504  -0.005716
     6  H    0.276503  -0.005714
     7  H    0.276432  -0.006141
     8  H    0.276503  -0.005715
 Sum of Mulliken charges =   1.00000   1.00000

 Dipole moment (field-independent basis, Debye):
    X=             -0.0000    Y=             -0.0000    Z=             -0.0000  Tot=              0.0000
 Quadrupole moment (field-independent basis, Debye-Ang):
   XX=             -7.5307   YY=            -10.6202   ZZ=            -10.6184
   XY=              0.0016   XZ=             -0.0009   YZ=              0.0016

 Normal termination of Gaussian 16 at Wed Nov 13 13:32:44 2024.
