 Gaussian 16, Revision A.03,
 Gaussian 16:  ES64L-G16RevA.03 25-Dec-2016

 --------------------------------------------
 #p opt UM062X/6-311+G** nosymm int=superfine
 --------------------------------------------

 -------------------
 Title Card Required
 -------------------
 Symbolic Z-matrix:
 Charge =  0 Multiplicity = 1

 SCF Done:  E(UM062X) =  -437.356426746     A.U. after   12 cycles
 SCF Done:  E(UM062X) =  -437.357599655     A.U. after   10 cycles
 SCF Done:  E(UM062X) =  -437.357931871     A.U. after   11 cycles
 SCF Done:  E(UM062X) =  -437.356968781     A.U. after   11 cycles
 SCF Done:  E(UM062X) =  -437.357942202     A.U. after    8 cycles
 Optimization completed.
    -- Stationary point found.

                          Input orientation:
 ---------------------------------------------------------------------
 Center     Atomic      Atomic             Coordinates (Angstroms)
 Number     Number       Type             X           Y           Z
 ---------------------------------------------------------------------
      1          6           0       -1.027140    0.000000    0.000000
      2         16           0        1.027140    0.000000    0.000000
      3          1           0       -1.526091   -0.960425    0.000484
      4          1           0       -1.526694    0.960111   -0.001004
 ---------------------------------------------------------------------

 Alpha  occ. eigenvalues --  -89.92191 -10.66596  -8.28027  -6.20104  -6.19997
 Alpha  occ. eigenvalues --   -6.19385  -0.82553  -0.71517  -0.55532  -0.41548
 Alpha  occ. eigenvalues --   -0.32555  -0.30050
 Alpha virt. eigenvalues --   -0.11474  -0.00744   0.03088   0.05032   0.06221
 Alpha virt. eigenvalues --    0.06993   0.08281   0.08538   0.09678   0.14665
 Alpha virt. eigenvalues --    0.16522   0.20725   0.34781   0.36498   0.36808

  Beta  occ. eigenvalues --  -89.92191 -10.66596  -8.28027  -6.20104  -6.19997
  Beta  occ. eigenvalues --   -6.19385  -0.82553  -0.71517  -0.55532  -0.41548
  Beta  occ. eigenvalues --   -0.32555  -0.30050
  Beta virt. eigenvalues --   -0.11474  -0.00744   0.03088   0.05032   0.06221
  Beta virt. eigenvalues --    0.06993   0.08281   0.08538   0.09678   0.14665
  Beta virt. eigenvalues --    0.16522   0.20725   0.34781   0.36498   0.36808

 Mulliken charges and spin densities:
               1          2
     1  C   -0.352694  -0.000000
     2  S   -0.068606   0.000000
     3  H    0.210652   0.000000
     4  H    0.210647  -0.000000
 Sum of Mulliken charges =  -0.00000  -0.00000

 Dipole moment (field-independent basis, Debye):
    X=             -2.5960    Y=             -0.0002    Z=             -0.0005  Tot=              2.5960
 Quadrupole moment (field-independent basis, Debye-Ang):
   XX=            -17.1143   YY=            -20.9594   ZZ=            -21.3063
   XY=             -0.0007   XZ=              0.0003   YZ=             -0.0003

 Normal termination of Gaussian 16 at Mon Apr 21 19:36:22 2025.
