 Gaussian 16, Revision A.03,
 Gaussian 16:  ES64L-G16RevA.03 25-Dec-2016

 --------------------------------------------
 #p opt UM062X/6-311+G** nosymm int=superfine
 --------------------------------------------

 -------------------
 Title Card Required
 -------------------
 Symbolic Z-matrix:
 Charge =  1 Multiplicity = 2

 SCF Done:  E(UM062X) =  -582.144330801     A.U. after   11 cycles
 SCF Done:  E(UM062X) =  -582.144964927     A.U. after    9 cycles
 SCF Done:  E(UM062X) =  -582.145081523     A.U. after    9 cycles
 SCF Done:  E(UM062X) =  -582.145081645     A.U. after    7 cycles
 Optimization completed.
    -- Stationary point found.

                          Input orientation:
 ---------------------------------------------------------------------
 Center     Atomic      Atomic             Coordinates (Angstroms)
 Number     Number       Type             X           Y           Z
 ---------------------------------------------------------------------
      1         14           0       -2.101292    0.000000    0.000000
      2         14           0        2.101292    0.000000    0.000000
      3          1           0        2.229615   -1.459116   -0.000005
      4          1           0       -2.228954   -0.729439    1.263763
      5          1           0        2.229442    0.729595   -1.263623
      6          1           0        2.228779    0.729526    1.263730
      7          1           0       -2.229640    1.459114   -0.000124
      8          1           0       -2.229242   -0.729687   -1.263590
 ---------------------------------------------------------------------

 Alpha  occ. eigenvalues --  -67.22909 -67.22909  -5.77737  -5.77735  -4.09416
 Alpha  occ. eigenvalues --   -4.09415  -4.08608  -4.08608  -4.08608  -4.08608
 Alpha  occ. eigenvalues --   -0.81559  -0.80944  -0.61818  -0.61817  -0.61636
 Alpha  occ. eigenvalues --   -0.61635  -0.42234
 Alpha virt. eigenvalues --   -0.29144  -0.12742  -0.11953  -0.10108  -0.10106
 Alpha virt. eigenvalues --   -0.09945  -0.08841  -0.08840  -0.07797  -0.07639
 Alpha virt. eigenvalues --   -0.07639  -0.06271  -0.06270  -0.04559   0.00768

  Beta  occ. eigenvalues --  -67.22646 -67.22646  -5.77659  -5.77656  -4.08799
  Beta  occ. eigenvalues --   -4.08799  -4.08518  -4.08518  -4.08518  -4.08518
  Beta  occ. eigenvalues --   -0.79755  -0.79390  -0.61671  -0.61670  -0.61481
  Beta  occ. eigenvalues --   -0.61480
  Beta virt. eigenvalues --   -0.31140  -0.22749  -0.14557  -0.12752  -0.12749
  Beta virt. eigenvalues --   -0.10982  -0.10802  -0.09298  -0.09296  -0.07215
  Beta virt. eigenvalues --   -0.07214  -0.07141  -0.05937  -0.05937  -0.05279

 Mulliken charges and spin densities:
               1          2
     1  Si   0.497437   0.549524
     2  Si   0.497437   0.549524
     3  H    0.000871  -0.016497
     4  H    0.000843  -0.016513
     5  H    0.000852  -0.016515
     6  H    0.000839  -0.016512
     7  H    0.000872  -0.016497
     8  H    0.000848  -0.016514
 Sum of Mulliken charges =   1.00000   1.00000

 Dipole moment (field-independent basis, Debye):
    X=             -0.0000    Y=             -0.0000    Z=              0.0000  Tot=              0.0000
 Quadrupole moment (field-independent basis, Debye-Ang):
   XX=              0.7948   YY=            -26.1717   ZZ=            -26.1717
   XY=              0.0004   XZ=              0.0001   YZ=             -0.0000

 Normal termination of Gaussian 16 at Mon Apr 21 20:15:21 2025.
