 Gaussian 16, Revision A.03,
 Gaussian 16:  ES64L-G16RevA.03 25-Dec-2016

 --------------------------------------------
 #p opt UM062X/6-311+G** nosymm int=superfine
 --------------------------------------------

 -------------------
 Title Card Required
 -------------------
 Symbolic Z-matrix:
 Charge =  0 Multiplicity = 1

 SCF Done:  E(UM062X) =  -92.8594044438     A.U. after   13 cycles
 SCF Done:  E(UM062X) =  -92.8613587454     A.U. after   11 cycles
 SCF Done:  E(UM062X) =  -92.8613697880     A.U. after    8 cycles
 Optimization completed.
    -- Stationary point found.

                          Input orientation:
 ---------------------------------------------------------------------
 Center     Atomic      Atomic             Coordinates (Angstroms)
 Number     Number       Type             X           Y           Z
 ---------------------------------------------------------------------
      1          6           0       -1.422395    0.000000    0.000000
      2          7           0        1.422395    0.000000    0.000000
      3          1           0       -2.547754    0.000000   -0.000000
 ---------------------------------------------------------------------

 Alpha  occ. eigenvalues --  -14.83910 -10.75560  -0.79638  -0.77752  -0.44577
 Alpha  occ. eigenvalues --   -0.28169  -0.28169
 Alpha virt. eigenvalues --   -0.16707  -0.16707  -0.08847   0.00447   0.06932
 Alpha virt. eigenvalues --    0.06932   0.07397   0.13108   0.17130   0.17130
 Alpha virt. eigenvalues --    0.17321   0.25208   0.43204   0.52575   0.52575

  Beta  occ. eigenvalues --  -14.83910 -10.75560  -0.79638  -0.77752  -0.44577
  Beta  occ. eigenvalues --   -0.28169  -0.28169
  Beta virt. eigenvalues --   -0.16707  -0.16707  -0.08847   0.00447   0.06932
  Beta virt. eigenvalues --    0.06932   0.07397   0.13108   0.17130   0.17130
  Beta virt. eigenvalues --    0.17321   0.25208   0.43204   0.52575   0.52575

 Mulliken charges and spin densities:
               1          2
     1  C    0.008520  -0.000000
     2  N   -0.193771   0.000000
     3  H    0.185251   0.000000
 Sum of Mulliken charges =  -0.00000  -0.00000

 Dipole moment (field-independent basis, Debye):
    X=             -4.7990    Y=              0.0000    Z=             -0.0000  Tot=              4.7990
 Quadrupole moment (field-independent basis, Debye-Ang):
   XX=             -5.4878   YY=            -14.3089   ZZ=            -14.3089
   XY=             -0.0000   XZ=              0.0000   YZ=              0.0000

 Normal termination of Gaussian 16 at Mon Apr 21 18:39:19 2025.
