 Gaussian 16, Revision A.03,
 Gaussian 16:  ES64L-G16RevA.03 25-Dec-2016

 --------------------------------------------
 #p opt UM062X/6-311+G** nosymm int=superfine
 --------------------------------------------

 -------------------
 Title Card Required
 -------------------
 Symbolic Z-matrix:
 Charge =  0 Multiplicity = 1

 SCF Done:  E(UM062X) =  -95.7270149822     A.U. after   11 cycles
 SCF Done:  E(UM062X) =  -95.7410639006     A.U. after   11 cycles
 SCF Done:  E(UM062X) =  -95.7443250210     A.U. after   11 cycles
 SCF Done:  E(UM062X) =  -95.7443640523     A.U. after   10 cycles
 SCF Done:  E(UM062X) =  -95.7443676904     A.U. after    8 cycles
 SCF Done:  E(UM062X) =  -95.7443682720     A.U. after    8 cycles
 Optimization completed.
    -- Stationary point found.

                          Input orientation:
 ---------------------------------------------------------------------
 Center     Atomic      Atomic             Coordinates (Angstroms)
 Number     Number       Type             X           Y           Z
 ---------------------------------------------------------------------
      1          6           0       -1.080542    0.000000    0.000000
      2          7           0        1.080542    0.000000    0.000000
      3          1           0        1.187565   -1.009304    0.122852
      4          1           0       -1.262492    1.065932   -0.002942
      5          1           0        1.187605    0.377763    0.943969
      6          1           0       -1.262439   -0.508477   -0.936848
      7          1           0       -1.355246   -0.534250    0.900661
 ---------------------------------------------------------------------

 Alpha  occ. eigenvalues --  -14.74744 -10.59003  -0.91209  -0.77970  -0.52247
 Alpha  occ. eigenvalues --   -0.50118  -0.48571  -0.37128  -0.32000
 Alpha virt. eigenvalues --   -0.01851   0.01481   0.05119   0.05811   0.07571
 Alpha virt. eigenvalues --    0.11035   0.13666   0.16018   0.16654   0.18362
 Alpha virt. eigenvalues --    0.21105   0.22303   0.22464   0.31734   0.41848

  Beta  occ. eigenvalues --  -14.74744 -10.59003  -0.91209  -0.77970  -0.52247
  Beta  occ. eigenvalues --   -0.50118  -0.48571  -0.37128  -0.32000
  Beta virt. eigenvalues --   -0.01851   0.01481   0.05119   0.05811   0.07571
  Beta virt. eigenvalues --    0.11035   0.13666   0.16018   0.16654   0.18362
  Beta virt. eigenvalues --    0.21105   0.22303   0.22464   0.31734   0.41848

 Mulliken charges and spin densities:
               1          2
     1  C   -0.428948   0.000000
     2  N   -0.577932  -0.000000
     3  H    0.234539   0.000000
     4  H    0.184233   0.000000
     5  H    0.234535   0.000000
     6  H    0.184263   0.000000
     7  H    0.169309  -0.000000
 Sum of Mulliken charges =  -0.00000  -0.00000

 Dipole moment (field-independent basis, Debye):
    X=             -1.7765    Y=             -0.8904    Z=              1.5041  Tot=              2.4922
 Quadrupole moment (field-independent basis, Debye-Ang):
   XX=            -15.1754   YY=            -13.2858   ZZ=            -14.1615
   XY=             -1.3172   XZ=              2.2252   YZ=              0.7981

 Normal termination of Gaussian 16 at Mon Apr 21 18:12:02 2025.
