 Gaussian 16, Revision A.03,
 Gaussian 16:  ES64L-G16RevA.03 25-Dec-2016

 ---------------------------------------------------
 #p UM062X/6-311+G** force int=superfine pop=saveNBO
 ---------------------------------------------------

 -------------------
 Title Card Required
 -------------------
 Symbolic Z-matrix:
 Charge =  0 Multiplicity = 1

                         Standard orientation:
 ---------------------------------------------------------------------
 Center     Atomic      Atomic             Coordinates (Angstroms)
 Number     Number       Type             X           Y           Z
 ---------------------------------------------------------------------
      1          6           0        0.000000    0.000000   -2.711703
      2         16           0        0.000000    0.000000    1.016889
 ---------------------------------------------------------------------

 SCF Done:  E(UM062X) =  -435.756865533     A.U. after   22 cycles

 The electronic state is 1-SG.
 Alpha  occ. eigenvalues --  -89.93707 -10.82489  -8.29523  -6.21338  -6.21338
 Alpha  occ. eigenvalues --   -6.21206  -0.73312  -0.70945  -0.30011  -0.28498
 Alpha  occ. eigenvalues --   -0.28498
 Alpha virt. eigenvalues --   -0.20454  -0.20454  -0.18436   0.02652   0.05618
 Alpha virt. eigenvalues --    0.05801   0.05801   0.08428   0.08428   0.08549
 Alpha virt. eigenvalues --    0.13683   0.35782   0.36181   0.36181   0.51706

  Beta  occ. eigenvalues --  -89.93707 -10.82489  -8.29523  -6.21338  -6.21338
  Beta  occ. eigenvalues --   -6.21206  -0.73312  -0.70945  -0.30011  -0.28498
  Beta  occ. eigenvalues --   -0.28498
  Beta virt. eigenvalues --   -0.20454  -0.20454  -0.18436   0.02652   0.05618
  Beta virt. eigenvalues --    0.05801   0.05801   0.08428   0.08428   0.08549
  Beta virt. eigenvalues --    0.13683   0.35782   0.36181   0.36181   0.51706

 Mulliken charges and spin densities:
               1          2
     1  C    0.216995  -0.000000
     2  S   -0.216995   0.000000
 Sum of Mulliken charges =  -0.00000  -0.00000

 Dipole moment (field-independent basis, Debye):
    X=              0.0000    Y=              0.0000    Z=             -3.8462  Tot=              3.8462
 Quadrupole moment (field-independent basis, Debye-Ang):
   XX=            -20.9060   YY=            -20.9060   ZZ=            -11.7067
   XY=              0.0000   XZ=              0.0000   YZ=              0.0000

 Summary of Natural Population Analysis:

                                       Natural Population
                Natural  -----------------------------------------------
    Atom  No    Charge         Core      Valence    Rydberg      Total
 -----------------------------------------------------------------------
      C    1    0.12404      1.00000     1.87551    0.00045     2.87596
      S    2   -0.12404      5.00000     3.12376    0.00028     8.12404
 =======================================================================
   * Total *   -0.00000      6.00000     4.99927    0.00073    11.00000

 Normal termination of Gaussian 16 at Mon Apr 21 19:46:07 2025.
