 Gaussian 16, Revision A.03,
 Gaussian 16:  ES64L-G16RevA.03 25-Dec-2016

 --------------------------------------------
 #p opt UM062X/6-311+G** nosymm int=superfine
 --------------------------------------------

 -------------------
 Title Card Required
 -------------------
 Symbolic Z-matrix:
 Charge =  1 Multiplicity = 2

 SCF Done:  E(UM062X) =  -76.6333015400     A.U. after   11 cycles
 SCF Done:  E(UM062X) =  -76.6714375363     A.U. after   11 cycles
 SCF Done:  E(UM062X) =  -76.7257641415     A.U. after   14 cycles
 SCF Done:  E(UM062X) =  -76.7283509691     A.U. after   10 cycles
 SCF Done:  E(UM062X) =  -76.7283588442     A.U. after    7 cycles
 Optimization completed.
    -- Stationary point found.

                          Input orientation:
 ---------------------------------------------------------------------
 Center     Atomic      Atomic             Coordinates (Angstroms)
 Number     Number       Type             X           Y           Z
 ---------------------------------------------------------------------
      1          6           0       -0.851239    0.000000    0.000000
      2          6           0        0.851239    0.000000    0.000000
      3          1           0       -1.947686    0.000003    0.000002
      4          1           0        1.947666   -0.000010   -0.000011
 ---------------------------------------------------------------------

 Alpha  occ. eigenvalues --  -11.00031 -10.99996  -1.09992  -0.99244  -0.84085
 Alpha  occ. eigenvalues --   -0.63403  -0.61293
 Alpha virt. eigenvalues --   -0.36432  -0.34441  -0.28311  -0.14188  -0.11309
 Alpha virt. eigenvalues --   -0.10540  -0.09060  -0.08824  -0.05319  -0.05007
 Alpha virt. eigenvalues --    0.01332   0.03730   0.07451   0.22706   0.31402

  Beta  occ. eigenvalues --  -10.99780 -10.99755  -1.06180  -0.97468  -0.83193
  Beta  occ. eigenvalues --   -0.59329
  Beta virt. eigenvalues --   -0.40684  -0.32720  -0.28237  -0.26197  -0.15220
  Beta virt. eigenvalues --   -0.11627  -0.10999  -0.09434  -0.09263  -0.05267
  Beta virt. eigenvalues --   -0.04977   0.00437   0.03831   0.07748   0.23394

 Mulliken charges and spin densities:
               1          2
     1  C    0.137227   0.521859
     2  C    0.137224   0.521852
     3  H    0.362779  -0.021856
     4  H    0.362771  -0.021855
 Sum of Mulliken charges =   1.00000   1.00000

 Dipole moment (field-independent basis, Debye):
    X=             -0.0001    Y=             -0.0000    Z=             -0.0000  Tot=              0.0001
 Quadrupole moment (field-independent basis, Debye-Ang):
   XX=              3.2387   YY=            -11.9562   ZZ=            -11.5310
   XY=             -0.0000   XZ=             -0.0000   YZ=              1.0220

 Normal termination of Gaussian 16 at Tue Nov 19 13:15:34 2024.
