 Gaussian 16, Revision A.03,
 Gaussian 16:  ES64L-G16RevA.03 25-Dec-2016

 --------------------------------------------
 #p opt UM062X/6-311+G** nosymm int=superfine
 --------------------------------------------

 -------------------
 Title Card Required
 -------------------
 Symbolic Z-matrix:
 Charge =  0 Multiplicity = 1

 SCF Done:  E(UM062X) =  -78.4863395472     A.U. after    8 cycles
 SCF Done:  E(UM062X) =  -78.5042790497     A.U. after    8 cycles
 SCF Done:  E(UM062X) =  -78.5078452181     A.U. after    8 cycles
 SCF Done:  E(UM062X) =  -78.5080755447     A.U. after    7 cycles
 Optimization completed.
    -- Stationary point found.

                          Input orientation:
 ---------------------------------------------------------------------
 Center     Atomic      Atomic             Coordinates (Angstroms)
 Number     Number       Type             X           Y           Z
 ---------------------------------------------------------------------
      1          6           0       -0.802075    0.000000    0.000000
      2          6           0        0.802075    0.000000    0.000000
      3          1           0       -1.324668   -0.945059    0.000000
      4          1           0       -1.324818    0.945017    0.000000
      5          1           0        1.324668    0.945059   -0.000000
      6          1           0        1.324818   -0.945017   -0.000000
 ---------------------------------------------------------------------

 Alpha  occ. eigenvalues --  -10.57704 -10.57669  -0.81080  -0.68758  -0.53189
 Alpha  occ. eigenvalues --   -0.45926  -0.44243  -0.29579
 Alpha virt. eigenvalues --   -0.01672   0.03375   0.03711   0.05343   0.07778
 Alpha virt. eigenvalues --    0.08395   0.09732   0.12039   0.15835   0.16900
 Alpha virt. eigenvalues --    0.20732   0.20807   0.26307   0.29668   0.41711

  Beta  occ. eigenvalues --  -10.57704 -10.57669  -0.81080  -0.68758  -0.53189
  Beta  occ. eigenvalues --   -0.45926  -0.44243  -0.29579
  Beta virt. eigenvalues --   -0.01672   0.03375   0.03711   0.05343   0.07778
  Beta virt. eigenvalues --    0.08395   0.09732   0.12039   0.15835   0.16900
  Beta virt. eigenvalues --    0.20732   0.20807   0.26307   0.29668   0.41711

 Mulliken charges and spin densities:
               1          2
     1  C   -0.326926   0.000000
     2  C   -0.326926  -0.000000
     3  H    0.163460  -0.000000
     4  H    0.163467   0.000000
     5  H    0.163460   0.000000
     6  H    0.163467   0.000000
 Sum of Mulliken charges =  -0.00000  -0.00000

 Dipole moment (field-independent basis, Debye):
    X=              0.0000    Y=             -0.0000    Z=             -0.0000  Tot=              0.0000
 Quadrupole moment (field-independent basis, Debye-Ang):
   XX=            -11.9117   YY=            -12.2498   ZZ=            -16.9973
   XY=             -0.0003   XZ=             -0.0000   YZ=              0.0000

 Normal termination of Gaussian 16 at Tue Nov 19 10:45:12 2024.
