 Gaussian 16, Revision A.03,
 Gaussian 16:  ES64L-G16RevA.03 25-Dec-2016

 ----------------------------------------------------------------------
 #p UM062X/6-311+G** force int=superfine SCF=(MaxCycle=200,NoVarAcc,noi
 ncfock) guess=read
 ----------------------------------------------------------------------

 -------------------
 Title Card Required
 -------------------
 Symbolic Z-matrix:
 Charge =  0 Multiplicity = 1

                         Standard orientation:
 ---------------------------------------------------------------------
 Center     Atomic      Atomic             Coordinates (Angstroms)
 Number     Number       Type             X           Y           Z
 ---------------------------------------------------------------------
      1          6           0        0.000000    0.000000   -2.384431
      2         16           0        0.000000    0.000000    0.894161
 ---------------------------------------------------------------------

 SCF Done:  E(UM062X) =  -435.841544845     A.U. after   11 cycles

 The electronic state is 1-SG.
 Alpha  occ. eigenvalues --  -89.92518 -10.77374  -8.28522  -6.21197  -6.19798
 Alpha  occ. eigenvalues --   -6.19798  -0.73152  -0.68878  -0.33033  -0.30393
 Alpha  occ. eigenvalues --   -0.30393
 Alpha virt. eigenvalues --   -0.15060  -0.15060  -0.15027   0.03156   0.05232
 Alpha virt. eigenvalues --    0.05873   0.05873   0.08714   0.08714   0.08868
 Alpha virt. eigenvalues --    0.14086   0.36521   0.36521   0.36572   0.51909

  Beta  occ. eigenvalues --  -89.92518 -10.77374  -8.28522  -6.21197  -6.19798
  Beta  occ. eigenvalues --   -6.19798  -0.73152  -0.68878  -0.33033  -0.30393
  Beta  occ. eigenvalues --   -0.30393
  Beta virt. eigenvalues --   -0.15060  -0.15060  -0.15027   0.03156   0.05232
  Beta virt. eigenvalues --    0.05873   0.05873   0.08714   0.08714   0.08868
  Beta virt. eigenvalues --    0.14086   0.36521   0.36521   0.36572   0.51909

 Mulliken charges and spin densities:
               1          2
     1  C    0.160176  -0.000000
     2  S   -0.160176   0.000000
 Sum of Mulliken charges =  -0.00000   0.00000

 Dipole moment (field-independent basis, Debye):
    X=              0.0000    Y=              0.0000    Z=             -2.5531  Tot=              2.5531
 Quadrupole moment (field-independent basis, Debye-Ang):
   XX=            -20.7270   YY=            -20.7270   ZZ=            -14.6610
   XY=              0.0000   XZ=              0.0000   YZ=              0.0000

 Normal termination of Gaussian 16 at Tue Apr 22 01:23:20 2025.
