 Gaussian 16, Revision A.03,
 Gaussian 16:  ES64L-G16RevA.03 25-Dec-2016

 --------------------------------------------
 #p opt UM062X/6-311+G** nosymm int=superfine
 --------------------------------------------

 -------------------
 Title Card Required
 -------------------
 Symbolic Z-matrix:
 Charge =  1 Multiplicity = 2

 SCF Done:  E(UM062X) =  -79.3646859751     A.U. after    9 cycles
 SCF Done:  E(UM062X) =  -79.3678453820     A.U. after    9 cycles
 SCF Done:  E(UM062X) =  -79.3679080931     A.U. after    8 cycles
 Optimization completed.
    -- Stationary point found.

                          Input orientation:
 ---------------------------------------------------------------------
 Center     Atomic      Atomic             Coordinates (Angstroms)
 Number     Number       Type             X           Y           Z
 ---------------------------------------------------------------------
      1          6           0       -1.055737    0.000000    0.000000
      2          6           0        1.055737    0.000000    0.000000
      3          1           0        1.177562   -0.933301    0.540114
      4          1           0       -1.176948   -0.934427   -0.538314
      5          1           0        1.177206    0.934475    0.538173
      6          1           0        1.176986   -0.001099   -1.078391
      7          1           0       -1.177576    0.933344   -0.540036
      8          1           0       -1.177230    0.000958    1.078363
 ---------------------------------------------------------------------

 Alpha  occ. eigenvalues --  -10.86033 -10.86023  -1.09712  -1.01725  -0.78271
 Alpha  occ. eigenvalues --   -0.78270  -0.73872  -0.73872  -0.61919
 Alpha virt. eigenvalues --   -0.25667  -0.16307  -0.11073  -0.11073  -0.09894
 Alpha virt. eigenvalues --   -0.07107  -0.06361  -0.06360  -0.05262  -0.05260
 Alpha virt. eigenvalues --   -0.02128   0.01647   0.01650   0.04524   0.07343

  Beta  occ. eigenvalues --  -10.85818 -10.85818  -1.06282  -0.98858  -0.77335
  Beta  occ. eigenvalues --   -0.77334  -0.73109  -0.73108
  Beta virt. eigenvalues --   -0.38703  -0.18540  -0.16023  -0.11107  -0.11107
  Beta virt. eigenvalues --   -0.08519  -0.07253  -0.06619  -0.06618  -0.04854
  Beta virt. eigenvalues --   -0.04852  -0.01257   0.02261   0.02263   0.05002

 Mulliken charges and spin densities:
               1          2
     1  C   -0.313938   0.554311
     2  C   -0.313938   0.554311
     3  H    0.271324  -0.018118
     4  H    0.271301  -0.018092
     5  H    0.271312  -0.018097
     6  H    0.271302  -0.018096
     7  H    0.271324  -0.018119
     8  H    0.271313  -0.018100
 Sum of Mulliken charges =   1.00000   1.00000

 Dipole moment (field-independent basis, Debye):
    X=             -0.0000    Y=             -0.0000    Z=             -0.0000  Tot=              0.0000
 Quadrupole moment (field-independent basis, Debye-Ang):
   XX=             -5.9876   YY=            -10.7992   ZZ=            -10.7992
   XY=             -0.0006   XZ=              0.0003   YZ=              0.0000

 Normal termination of Gaussian 16 at Wed Nov 13 13:26:15 2024.
