 Gaussian 16, Revision A.03,
 Gaussian 16:  ES64L-G16RevA.03 25-Dec-2016

 --------------------------------------------
 #p opt UM062X/6-311+G** nosymm int=superfine
 --------------------------------------------

 -------------------
 Title Card Required
 -------------------
 Symbolic Z-matrix:
 Charge =  0 Multiplicity = 1

 SCF Done:  E(UM062X) =  -581.109292848     A.U. after   10 cycles
 SCF Done:  E(UM062X) =  -581.110181044     A.U. after    8 cycles
 SCF Done:  E(UM062X) =  -581.110495645     A.U. after   11 cycles
 SCF Done:  E(UM062X) =  -581.110530499     A.U. after   12 cycles
 SCF Done:  E(UM062X) =  -581.144183750     A.U. after   18 cycles
 SCF Done:  E(UM062X) =  -581.174083429     A.U. after   12 cycles
 SCF Done:  E(UM062X) =  -581.192330068     A.U. after   12 cycles
 SCF Done:  E(UM062X) =  -581.193552174     A.U. after   11 cycles
 SCF Done:  E(UM062X) =  -581.193862849     A.U. after   10 cycles
 SCF Done:  E(UM062X) =  -581.193864083     A.U. after    8 cycles
 Optimization completed.
    -- Stationary point found.

                          Input orientation:
 ---------------------------------------------------------------------
 Center     Atomic      Atomic             Coordinates (Angstroms)
 Number     Number       Type             X           Y           Z
 ---------------------------------------------------------------------
      1         14           0       -1.687518    0.000000    0.000000
      2         14           0        1.687518    0.000000    0.000000
      3          1           0       -2.212099   -1.115567    0.867851
      4          1           0        2.213450    1.115551   -0.867024
      5          1           0       -2.212180    1.115859    0.867426
      6          1           0        2.213349   -1.115927   -0.866602
 ---------------------------------------------------------------------

 Alpha  occ. eigenvalues --  -67.02482 -67.02475  -5.57128  -5.57121  -3.88404
 Alpha  occ. eigenvalues --   -3.88398  -3.87884  -3.87877  -3.87765  -3.87759
 Alpha  occ. eigenvalues --   -0.58814  -0.57432  -0.39580  -0.39111  -0.31382
 Alpha  occ. eigenvalues --   -0.26790
 Alpha virt. eigenvalues --   -0.10349  -0.04278   0.02195   0.02596   0.03643
 Alpha virt. eigenvalues --    0.04755   0.05504   0.05706   0.05914   0.06301
 Alpha virt. eigenvalues --    0.08335   0.08526   0.12474   0.15974   0.27581

  Beta  occ. eigenvalues --  -67.02482 -67.02475  -5.57128  -5.57121  -3.88404
  Beta  occ. eigenvalues --   -3.88398  -3.87884  -3.87877  -3.87765  -3.87759
  Beta  occ. eigenvalues --   -0.58814  -0.57432  -0.39580  -0.39111  -0.31382
  Beta  occ. eigenvalues --   -0.26790
  Beta virt. eigenvalues --   -0.10349  -0.04278   0.02195   0.02596   0.03643
  Beta virt. eigenvalues --    0.04755   0.05504   0.05706   0.05914   0.06301
  Beta virt. eigenvalues --    0.08335   0.08526   0.12474   0.15974   0.27581

 Mulliken charges and spin densities:
               1          2
     1  Si   0.258879  -0.000000
     2  Si   0.259082   0.000000
     3  H   -0.129500  -0.000000
     4  H   -0.129481   0.000000
     5  H   -0.129499  -0.000000
     6  H   -0.129481   0.000000
 Sum of Mulliken charges =  -0.00000  -0.00000

 Dipole moment (field-independent basis, Debye):
    X=              0.0028    Y=             -0.0000    Z=              0.0002  Tot=              0.0028
 Quadrupole moment (field-independent basis, Debye-Ang):
   XX=            -25.0858   YY=            -31.9583   ZZ=            -33.4233
   XY=              0.0006   XZ=              3.0255   YZ=             -0.0003

 Normal termination of Gaussian 16 at Mon Apr 21 20:32:16 2025.
