 Gaussian 16, Revision A.03,
 Gaussian 16:  ES64L-G16RevA.03 25-Dec-2016

 ---------------------------------------------------
 #p UM062X/6-311+G** force int=superfine pop=saveNBO
 ---------------------------------------------------

 -------------------
 Title Card Required
 -------------------
 Symbolic Z-matrix:
 Charge =  0 Multiplicity = 1

                         Standard orientation:
 ---------------------------------------------------------------------
 Center     Atomic      Atomic             Coordinates (Angstroms)
 Number     Number       Type             X           Y           Z
 ---------------------------------------------------------------------
      1          8           0        0.000000    0.000000   -2.560091
      2         16           0        0.000000    0.000000    1.280045
 ---------------------------------------------------------------------

 SCF Done:  E(UM062X) =  -473.004905266     A.U. after   18 cycles

 Unable to determine electronic state:  partially filled degenerate orbitals.
 Alpha  occ. eigenvalues --  -89.97386 -19.76472  -8.33429  -6.26223  -6.24639
 Alpha  occ. eigenvalues --   -6.24609  -1.06222  -0.77410  -0.45108  -0.45090
 Alpha  occ. eigenvalues --   -0.34649  -0.34546
 Alpha virt. eigenvalues --   -0.19755  -0.19224   0.03560   0.04755   0.05655
 Alpha virt. eigenvalues --    0.05756   0.14926   0.18065   0.18268   0.22559
 Alpha virt. eigenvalues --    0.33582   0.34794   0.35640   0.58678   0.77205

  Beta  occ. eigenvalues --  -89.97386 -19.76472  -8.33429  -6.26223  -6.24639
  Beta  occ. eigenvalues --   -6.24609  -1.06222  -0.77410  -0.45108  -0.45090
  Beta  occ. eigenvalues --   -0.34649  -0.34546
  Beta virt. eigenvalues --   -0.19755  -0.19224   0.03560   0.04755   0.05655
  Beta virt. eigenvalues --    0.05756   0.14926   0.18065   0.18268   0.22559
  Beta virt. eigenvalues --    0.33582   0.34794   0.35640   0.58678   0.77205

 Mulliken charges and spin densities:
               1          2
     1  O   -0.019365  -0.000000
     2  S    0.019365  -0.000000
 Sum of Mulliken charges =   0.00000  -0.00000

 Dipole moment (field-independent basis, Debye):
    X=              0.0000    Y=              0.0000    Z=              0.4654  Tot=              0.4654
 Quadrupole moment (field-independent basis, Debye-Ang):
   XX=            -15.6815   YY=            -21.1238   ZZ=            -19.1953
   XY=              0.0000   XZ=              0.0000   YZ=              0.0000

 Summary of Natural Population Analysis:

                                       Natural Population
                Natural  -----------------------------------------------
    Atom  No    Charge         Core      Valence    Rydberg      Total
 -----------------------------------------------------------------------
      O    1   -0.01106      1.00000     3.01094    0.00012     4.01106
      S    2    0.01106      4.99999     2.98851    0.00045     7.98894
 =======================================================================
   * Total *    0.00000      5.99999     5.99944    0.00057    12.00000

 Normal termination of Gaussian 16 at Mon Apr 21 20:01:25 2025.
