 Gaussian 16, Revision A.03,
 Gaussian 16:  ES64L-G16RevA.03 25-Dec-2016

 --------------------------------------------
 #p opt UM062X/6-311+G** nosymm int=superfine
 --------------------------------------------

 -------------------
 Title Card Required
 -------------------
 Symbolic Z-matrix:
 Charge =  0 Multiplicity = 1

 SCF Done:  E(UM062X) =  -79.7968961403     A.U. after    8 cycles
 SCF Done:  E(UM062X) =  -79.7969422929     A.U. after    7 cycles
 SCF Done:  E(UM062X) =  -79.7969435111     A.U. after    6 cycles
 Optimization completed.
    -- Stationary point found.

                          Input orientation:
 ---------------------------------------------------------------------
 Center     Atomic      Atomic             Coordinates (Angstroms)
 Number     Number       Type             X           Y           Z
 ---------------------------------------------------------------------
      1          6           0       -0.771182    0.000000    0.000000
      2          6           0        0.771261    0.000000    0.000000
      3          1           0        1.163005   -0.881737    0.510215
      4          1           0       -1.162919   -0.882734   -0.508492
      5          1           0        1.162998    0.882733    0.508491
      6          1           0        1.162984   -0.000991   -1.018723
      7          1           0       -1.162926    0.881736   -0.510215
      8          1           0       -1.162906    0.000991    1.018722
 ---------------------------------------------------------------------

 Alpha  occ. eigenvalues --  -10.52260 -10.52225  -0.84566  -0.70112  -0.50142
 Alpha  occ. eigenvalues --   -0.50142  -0.42369  -0.40449  -0.40449
 Alpha virt. eigenvalues --    0.02186   0.04081   0.05493   0.05493   0.08766
 Alpha virt. eigenvalues --    0.08766   0.08939   0.13911   0.18719   0.18719
 Alpha virt. eigenvalues --    0.21130   0.21130   0.24141   0.26988   0.28769

  Beta  occ. eigenvalues --  -10.52260 -10.52225  -0.84566  -0.70112  -0.50142
  Beta  occ. eigenvalues --   -0.50142  -0.42369  -0.40449  -0.40449
  Beta virt. eigenvalues --    0.02186   0.04081   0.05493   0.05493   0.08766
  Beta virt. eigenvalues --    0.08766   0.08939   0.13911   0.18719   0.18719
  Beta virt. eigenvalues --    0.21130   0.21130   0.24141   0.26988   0.28769

 Mulliken charges and spin densities:
               1          2
     1  C   -0.471150  -0.000000
     2  C   -0.471150   0.000000
     3  H    0.157050  -0.000000
     4  H    0.157050   0.000000
     5  H    0.157050  -0.000000
     6  H    0.157050  -0.000000
     7  H    0.157050   0.000000
     8  H    0.157050   0.000000
 Sum of Mulliken charges =  -0.00000   0.00000

 Dipole moment (field-independent basis, Debye):
    X=             -0.0000    Y=             -0.0000    Z=             -0.0000  Tot=              0.0000
 Quadrupole moment (field-independent basis, Debye-Ang):
   XX=            -15.6300   YY=            -14.9661   ZZ=            -14.9661
   XY=             -0.0000   XZ=              0.0000   YZ=             -0.0000

 Normal termination of Gaussian 16 at Tue Nov 19 11:53:52 2024.
