 Gaussian 16, Revision A.03,
 Gaussian 16:  ES64L-G16RevA.03 25-Dec-2016

 --------------------------------------------
 #p opt UM062X/6-311+G** nosymm int=superfine
 --------------------------------------------

 -------------------
 Title Card Required
 -------------------
 Symbolic Z-matrix:
 Charge =  0 Multiplicity = 1

 SCF Done:  E(UM062X) =  -382.261363381     A.U. after   13 cycles
 SCF Done:  E(UM062X) =  -382.271243767     A.U. after   11 cycles
 SCF Done:  E(UM062X) =  -382.276489345     A.U. after   11 cycles
 SCF Done:  E(UM062X) =  -382.276555118     A.U. after   10 cycles
 SCF Done:  E(UM062X) =  -382.276590199     A.U. after   10 cycles
 SCF Done:  E(UM062X) =  -382.276606005     A.U. after   11 cycles
 SCF Done:  E(UM062X) =  -382.276610289     A.U. after    9 cycles
 SCF Done:  E(UM062X) =  -382.276611901     A.U. after    9 cycles
 SCF Done:  E(UM062X) =  -382.276612446     A.U. after   10 cycles
 SCF Done:  E(UM062X) =  -382.276612563     A.U. after    8 cycles
 Optimization completed.
    -- Stationary point found.

                          Input orientation:
 ---------------------------------------------------------------------
 Center     Atomic      Atomic             Coordinates (Angstroms)
 Number     Number       Type             X           Y           Z
 ---------------------------------------------------------------------
      1          6           0       -1.781264    0.000000    0.000000
      2         15           0        1.781264    0.000000    0.000000
      3          1           0        1.719912   -1.417745    0.030329
      4          1           0       -1.857442    1.051460    0.236446
      5          1           0        1.719974    0.081218    1.415722
      6          1           0       -1.857340   -0.317348   -1.029940
      7          1           0       -1.880757   -0.730737    0.789829
 ---------------------------------------------------------------------

 Alpha  occ. eigenvalues --  -78.03282 -10.59215  -6.85650  -4.97177  -4.97101
 Alpha  occ. eigenvalues --   -4.96917  -0.78482  -0.69427  -0.50563  -0.50502
 Alpha  occ. eigenvalues --   -0.43600  -0.34702  -0.24794
 Alpha virt. eigenvalues --   -0.11236   0.02108   0.03976   0.03992   0.04581
 Alpha virt. eigenvalues --    0.06332   0.06917   0.07150   0.07289   0.11684
 Alpha virt. eigenvalues --    0.17389   0.18464   0.18566   0.23484   0.30167

  Beta  occ. eigenvalues --  -78.03282 -10.59215  -6.85650  -4.97177  -4.97101
  Beta  occ. eigenvalues --   -4.96917  -0.78482  -0.69427  -0.50563  -0.50502
  Beta  occ. eigenvalues --   -0.43600  -0.34702  -0.24794
  Beta virt. eigenvalues --   -0.11236   0.02108   0.03976   0.03992   0.04581
  Beta virt. eigenvalues --    0.06332   0.06917   0.07150   0.07289   0.11684
  Beta virt. eigenvalues --    0.17389   0.18464   0.18566   0.23484   0.30167

 Mulliken charges and spin densities:
               1          2
     1  C   -0.522392  -0.000000
     2  P   -0.043213   0.000000
     3  H    0.002000  -0.000000
     4  H    0.187910   0.000000
     5  H    0.002004  -0.000000
     6  H    0.187915   0.000000
     7  H    0.185777   0.000000
 Sum of Mulliken charges =  -0.00000   0.00000

 Dipole moment (field-independent basis, Debye):
    X=             -1.3137    Y=             -0.5600    Z=              0.6059  Tot=              1.5513
 Quadrupole moment (field-independent basis, Debye-Ang):
   XX=            -22.2544   YY=            -22.3496   ZZ=            -22.4603
   XY=             -1.1937   XZ=              1.2916   YZ=              0.7022

 Normal termination of Gaussian 16 at Mon Apr 21 19:07:43 2025.
