 Gaussian 16, Revision A.03,
 Gaussian 16:  ES64L-G16RevA.03 25-Dec-2016

 ---------------------------------------
 #p UM062X/6-311+G** force int=superfine
 ---------------------------------------

 -------------------
 Title Card Required
 -------------------
 Symbolic Z-matrix:
 Charge =  1 Multiplicity = 2

                         Standard orientation:
 ---------------------------------------------------------------------
 Center     Atomic      Atomic             Coordinates (Angstroms)
 Number     Number       Type             X           Y           Z
 ---------------------------------------------------------------------
      1          6           0        0.000000    1.088614    0.000000
      2          6           0       -0.000000   -1.088614    0.000000
      3          1           0        0.990518    1.531509    0.000000
      4          1           0       -0.990508    1.531458    0.000000
      5          1           0       -0.990518   -1.531509    0.000000
      6          1           0        0.990508   -1.531458    0.000000
 ---------------------------------------------------------------------

 SCF Done:  E(UM062X) =  -78.0270451214     A.U. after    9 cycles

 The electronic state is 2-AU.
 Alpha  occ. eigenvalues --  -10.92350 -10.92339  -1.05554  -1.00392  -0.80347
 Alpha  occ. eigenvalues --   -0.77976  -0.64765  -0.54937
 Alpha virt. eigenvalues --   -0.37347  -0.27572  -0.13965  -0.10946  -0.10310
 Alpha virt. eigenvalues --   -0.08213  -0.07521  -0.07062  -0.04750  -0.03938
 Alpha virt. eigenvalues --   -0.03225  -0.00082   0.01953   0.09269   0.17915

  Beta  occ. eigenvalues --  -10.92109 -10.92102  -1.02574  -0.98108  -0.79863
  Beta  occ. eigenvalues --   -0.77618  -0.63126
  Beta virt. eigenvalues --   -0.34547  -0.28349  -0.25306  -0.15199  -0.11231
  Beta virt. eigenvalues --   -0.10437  -0.07595  -0.07384  -0.07375  -0.04062
  Beta virt. eigenvalues --   -0.03839  -0.02724   0.00456   0.01049   0.10095

 Mulliken charges and spin densities:
               1          2
     1  C   -0.067990   0.541604
     2  C   -0.067990   0.541604
     3  H    0.283998  -0.020802
     4  H    0.283992  -0.020802
     5  H    0.283998  -0.020802
     6  H    0.283992  -0.020802
 Sum of Mulliken charges =   1.00000   1.00000

 Dipole moment (field-independent basis, Debye):
    X=             -0.0000    Y=              0.0000    Z=              0.0000  Tot=              0.0000
 Quadrupole moment (field-independent basis, Debye-Ang):
   XX=             -8.0562   YY=             -0.9707   ZZ=            -12.6564
   XY=              0.0002   XZ=              0.0000   YZ=             -0.0000

 Normal termination of Gaussian 16 at Tue Nov 19 11:57:09 2024.
