 Gaussian 16, Revision A.03,
 Gaussian 16:  ES64L-G16RevA.03 25-Dec-2016

 ---------------------------------------------------
 #p UM062X/6-311+G** force int=superfine pop=saveNBO
 ---------------------------------------------------

 -------------------
 Title Card Required
 -------------------
 Symbolic Z-matrix:
 Charge =  0 Multiplicity = 1

                         Standard orientation:
 ---------------------------------------------------------------------
 Center     Atomic      Atomic             Coordinates (Angstroms)
 Number     Number       Type             X           Y           Z
 ---------------------------------------------------------------------
      1          6           0        0.000000    0.000000   -3.184431
      2         16           0        0.000000    0.000000    1.194161
 ---------------------------------------------------------------------

 SCF Done:  E(UM062X) =  -435.721347686     A.U. after   18 cycles

 The electronic state is 1-SG.
 Alpha  occ. eigenvalues --  -89.92896 -10.82451  -8.28760  -6.20538  -6.20538
 Alpha  occ. eigenvalues --   -6.20516  -0.72641  -0.71310  -0.28405  -0.27667
 Alpha  occ. eigenvalues --   -0.27667
 Alpha virt. eigenvalues --   -0.21052  -0.21052  -0.20084   0.02378   0.05557
 Alpha virt. eigenvalues --    0.05557   0.05582   0.08158   0.08262   0.08262
 Alpha virt. eigenvalues --    0.13052   0.36201   0.36746   0.36746   0.51047

  Beta  occ. eigenvalues --  -89.92896 -10.82451  -8.28760  -6.20538  -6.20538
  Beta  occ. eigenvalues --   -6.20516  -0.72641  -0.71310  -0.28405  -0.27667
  Beta  occ. eigenvalues --   -0.27667
  Beta virt. eigenvalues --   -0.21052  -0.21052  -0.20084   0.02378   0.05557
  Beta virt. eigenvalues --    0.05557   0.05582   0.08158   0.08262   0.08262
  Beta virt. eigenvalues --    0.13052   0.36201   0.36746   0.36746   0.51047

 Mulliken charges and spin densities:
               1          2
     1  C    0.219022   0.000001
     2  S   -0.219022  -0.000001
 Sum of Mulliken charges =  -0.00000   0.00000

 Dipole moment (field-independent basis, Debye):
    X=              0.0000    Y=              0.0000    Z=             -4.6466  Tot=              4.6466
 Quadrupole moment (field-independent basis, Debye-Ang):
   XX=            -20.8937   YY=            -20.8937   ZZ=             -9.2850
   XY=              0.0000   XZ=              0.0000   YZ=              0.0000

 Summary of Natural Population Analysis:

                                       Natural Population
                Natural  -----------------------------------------------
    Atom  No    Charge         Core      Valence    Rydberg      Total
 -----------------------------------------------------------------------
      C    1    0.12142      1.00000     1.87820    0.00038     2.87858
      S    2   -0.12142      5.00000     3.12122    0.00020     8.12142
 =======================================================================
   * Total *   -0.00000      6.00000     4.99942    0.00058    11.00000

 Normal termination of Gaussian 16 at Mon Apr 21 19:41:25 2025.
