 Gaussian 16, Revision A.03,
 Gaussian 16:  ES64L-G16RevA.03 25-Dec-2016

 --------------------------------------------
 #p opt UM062X/6-311+G** nosymm int=superfine
 --------------------------------------------

 -------------------
 Title Card Required
 -------------------
 Symbolic Z-matrix:
 Charge = -1 Multiplicity = 2

 SCF Done:  E(UM062X) =  -50.5566918845     A.U. after   15 cycles
 SCF Done:  E(UM062X) =  -50.5611210690     A.U. after   16 cycles
 SCF Done:  E(UM062X) =  -50.5614295870     A.U. after   21 cycles
 Optimization completed.
    -- Stationary point found.

                          Input orientation:
 ---------------------------------------------------------------------
 Center     Atomic      Atomic             Coordinates (Angstroms)
 Number     Number       Type             X           Y           Z
 ---------------------------------------------------------------------
      1          5           0       -1.841404    0.000000    0.000000
      2          5           0        1.841404    0.000000    0.000000
      3          1           0       -3.111388   -0.000961   -0.000000
      4          1           0        3.111388    0.000961    0.000000
 ---------------------------------------------------------------------

 Alpha  occ. eigenvalues --   -6.90979  -6.90979  -0.34483  -0.34269  -0.09884
 Alpha  occ. eigenvalues --   -0.05888   0.02595
 Alpha virt. eigenvalues --    0.10911   0.12428   0.13991   0.15559   0.16234
 Alpha virt. eigenvalues --    0.21787   0.21948   0.22147   0.22676   0.23432
 Alpha virt. eigenvalues --    0.25655   0.33497   0.37444   0.51185   0.57888

  Beta  occ. eigenvalues --   -6.90898  -6.90898  -0.33431  -0.33321  -0.08753
  Beta  occ. eigenvalues --   -0.04889
  Beta virt. eigenvalues --    0.10518   0.11453   0.12492   0.13005   0.13468
  Beta virt. eigenvalues --    0.13830   0.19183   0.20214   0.20492   0.21389
  Beta virt. eigenvalues --    0.21531   0.22144   0.33303   0.37503   0.50883

 Mulliken charges and spin densities:
               1          2
     1  B   -0.407389   0.510488
     2  B   -0.407389   0.510488
     3  H   -0.092611  -0.010488
     4  H   -0.092611  -0.010488
 Sum of Mulliken charges =  -1.00000   1.00000

 Dipole moment (field-independent basis, Debye):
    X=             -0.0000    Y=              0.0000    Z=             -0.0000  Tot=              0.0000
 Quadrupole moment (field-independent basis, Debye-Ang):
   XX=            -38.1325   YY=            -19.2185   ZZ=            -26.7516
   XY=             -0.0017   XZ=             -0.0000   YZ=              0.0000

 Normal termination of Gaussian 16 at Mon Apr 21 17:33:27 2025.
