 Gaussian 16, Revision A.03,
 Gaussian 16:  ES64L-G16RevA.03 25-Dec-2016

 ---------------------------------------
 #p UM062X/6-311+G** force int=superfine
 ---------------------------------------

 -------------------
 Title Card Required
 -------------------
 Symbolic Z-matrix:
 Charge =  1 Multiplicity = 2

                         Standard orientation:
 ---------------------------------------------------------------------
 Center     Atomic      Atomic             Coordinates (Angstroms)
 Number     Number       Type             X           Y           Z
 ---------------------------------------------------------------------
      1          6           0        0.000000    0.000000    0.391446
      2          6           0        0.000000    0.000000   -0.391446
      3          1           0        0.000000    0.000000    1.456190
      4          1           0        0.000000    0.000000   -1.456188
 ---------------------------------------------------------------------

 SCF Done:  E(UM062X) =  -75.9301326676     A.U. after   11 cycles

 Unable to determine electronic state:  partially filled degenerate orbitals.
 Alpha  occ. eigenvalues --  -10.96988 -10.87912  -1.33215  -0.93801  -0.93356
 Alpha  occ. eigenvalues --   -0.92001  -0.89448
 Alpha virt. eigenvalues --   -0.15097  -0.13755  -0.13214  -0.12607  -0.12457
 Alpha virt. eigenvalues --   -0.12075  -0.11679  -0.00838  -0.00225   0.00282
 Alpha virt. eigenvalues --    0.02792   0.03504   0.17244   0.22094   0.23096

  Beta  occ. eigenvalues --  -10.96344 -10.87474  -1.25956  -0.91837  -0.90878
  Beta  occ. eigenvalues --   -0.86589
  Beta virt. eigenvalues --   -0.59344  -0.15454  -0.12933  -0.12459  -0.12114
  Beta virt. eigenvalues --   -0.12094  -0.11830  -0.11567  -0.00021   0.00923
  Beta virt. eigenvalues --    0.01991   0.03378   0.04074   0.17505   0.21105

 Mulliken charges and spin densities:
               1          2
     1  C    0.269070   0.525239
     2  C    0.269066   0.525238
     3  H    0.230933  -0.025238
     4  H    0.230932  -0.025238
 Sum of Mulliken charges =   1.00000   1.00000

 Dipole moment (field-independent basis, Debye):
    X=              0.0000    Y=              0.0000    Z=              0.0000  Tot=              0.0000
 Quadrupole moment (field-independent basis, Debye-Ang):
   XX=             -8.1551   YY=             -9.4461   ZZ=             -3.0956
   XY=              0.0000   XZ=              0.0000   YZ=              0.0000

 Normal termination of Gaussian 16 at Tue Nov 19 13:23:46 2024.
