 Gaussian 16, Revision A.03,
 Gaussian 16:  ES64L-G16RevA.03 25-Dec-2016

 --------------------------------------------
 #p opt UM062X/6-311+G** nosymm int=superfine
 --------------------------------------------

 -------------------
 Title Card Required
 -------------------
 Symbolic Z-matrix:
 Charge =  1 Multiplicity = 2

 SCF Done:  E(UM062X) =  -78.0204238538     A.U. after    9 cycles
 SCF Done:  E(UM062X) =  -78.0540167467     A.U. after    9 cycles
 SCF Done:  E(UM062X) =  -78.0778315080     A.U. after    9 cycles
 SCF Done:  E(UM062X) =  -78.0801184459     A.U. after    9 cycles
 SCF Done:  E(UM062X) =  -78.0802004144     A.U. after    8 cycles
 Optimization completed.
    -- Stationary point found.

                          Input orientation:
 ---------------------------------------------------------------------
 Center     Atomic      Atomic             Coordinates (Angstroms)
 Number     Number       Type             X           Y           Z
 ---------------------------------------------------------------------
      1          6           0       -0.975511    0.000000    0.000000
      2          6           0        0.975511    0.000000    0.000000
      3          1           0       -1.446402   -0.976851   -0.000000
      4          1           0       -1.446452    0.976748   -0.000000
      5          1           0        1.446402    0.976851   -0.000000
      6          1           0        1.446452   -0.976748   -0.000000
 ---------------------------------------------------------------------

 Alpha  occ. eigenvalues --  -10.92056 -10.92038  -1.07670  -0.99865  -0.81007
 Alpha  occ. eigenvalues --   -0.77159  -0.68698  -0.57244
 Alpha virt. eigenvalues --   -0.35908  -0.22089  -0.14215  -0.11099  -0.09843
 Alpha virt. eigenvalues --   -0.08513  -0.07423  -0.07250  -0.04746  -0.04249
 Alpha virt. eigenvalues --   -0.02436  -0.00802   0.02251   0.09460   0.18079

  Beta  occ. eigenvalues --  -10.91823 -10.91812  -1.04509  -0.97668  -0.80424
  Beta  occ. eigenvalues --   -0.76807  -0.67234
  Beta virt. eigenvalues --   -0.36053  -0.27367  -0.19671  -0.15611  -0.11455
  Beta virt. eigenvalues --   -0.09768  -0.08083  -0.07731  -0.07364  -0.04291
  Beta virt. eigenvalues --   -0.03957  -0.01997  -0.00204   0.01497   0.10133

 Mulliken charges and spin densities:
               1          2
     1  C   -0.066273   0.540914
     2  C   -0.066273   0.540914
     3  H    0.283139  -0.020458
     4  H    0.283133  -0.020456
     5  H    0.283139  -0.020458
     6  H    0.283133  -0.020456
 Sum of Mulliken charges =   1.00000   1.00000

 Dipole moment (field-independent basis, Debye):
    X=              0.0000    Y=              0.0000    Z=             -0.0000  Tot=              0.0000
 Quadrupole moment (field-independent basis, Debye-Ang):
   XX=             -2.5582   YY=             -8.1888   ZZ=            -12.4143
   XY=              0.0001   XZ=              0.0000   YZ=             -0.0000

 Normal termination of Gaussian 16 at Tue Nov 19 11:18:20 2024.
