 Gaussian 16, Revision A.03,
 Gaussian 16:  ES64L-G16RevA.03 25-Dec-2016

 --------------------------------------------
 #p opt UM062X/6-311+G** nosymm int=superfine
 --------------------------------------------

 -------------------
 Title Card Required
 -------------------
 Symbolic Z-matrix:
 Charge =  0 Multiplicity = 1

 SCF Done:  E(UM062X) =  -79.5655820919     A.U. after   10 cycles
 SCF Done:  E(UM062X) =  -79.5696325774     A.U. after    9 cycles
 SCF Done:  E(UM062X) =  -79.5713906487     A.U. after   10 cycles
 SCF Done:  E(UM062X) =  -79.5714050773     A.U. after   10 cycles
 Optimization completed.
    -- Stationary point found.

                          Input orientation:
 ---------------------------------------------------------------------
 Center     Atomic      Atomic             Coordinates (Angstroms)
 Number     Number       Type             X           Y           Z
 ---------------------------------------------------------------------
      1          6           0       -2.021675    0.000000    0.000000
      2          6           0        2.021800    0.000000    0.000000
      3          1           0        2.072728   -0.933634    0.540246
      4          1           0       -2.072586   -0.934688   -0.538423
      5          1           0        2.072715    0.934688    0.538422
      6          1           0        2.072736   -0.001052   -1.078674
      7          1           0       -2.072603    0.933635   -0.540245
      8          1           0       -2.072616    0.001051    1.078674
 ---------------------------------------------------------------------

 Alpha  occ. eigenvalues --  -10.57262 -10.57261  -0.77146  -0.76869  -0.49324
 Alpha  occ. eigenvalues --   -0.49323  -0.49216  -0.49216  -0.21447
 Alpha virt. eigenvalues --   -0.11677   0.03101   0.04925   0.05283   0.05283
 Alpha virt. eigenvalues --    0.07350   0.07350   0.11281   0.12672   0.18687
 Alpha virt. eigenvalues --    0.18687   0.20078   0.20078   0.21692   0.25109

  Beta  occ. eigenvalues --  -10.57262 -10.57261  -0.77146  -0.76869  -0.49324
  Beta  occ. eigenvalues --   -0.49323  -0.49216  -0.49216  -0.21447
  Beta virt. eigenvalues --   -0.11677   0.03101   0.04925   0.05283   0.05283
  Beta virt. eigenvalues --    0.07350   0.07350   0.11281   0.12672   0.18687
  Beta virt. eigenvalues --    0.18687   0.20078   0.20078   0.21692   0.25109

 Mulliken charges and spin densities:
               1          2
     1  C   -0.523677  -0.000000
     2  C   -0.523677   0.000000
     3  H    0.174559  -0.000000
     4  H    0.174560   0.000000
     5  H    0.174559  -0.000000
     6  H    0.174559  -0.000000
     7  H    0.174559   0.000000
     8  H    0.174558   0.000000
 Sum of Mulliken charges =  -0.00000   0.00000

 Dipole moment (field-independent basis, Debye):
    X=             -0.0000    Y=             -0.0000    Z=             -0.0000  Tot=              0.0000
 Quadrupole moment (field-independent basis, Debye-Ang):
   XX=            -15.8852   YY=            -14.8755   ZZ=            -14.8756
   XY=             -0.0000   XZ=             -0.0000   YZ=             -0.0000

 Normal termination of Gaussian 16 at Tue Dec  3 10:08:44 2024.
