 Gaussian 16, Revision A.03,
 Gaussian 16:  ES64L-G16RevA.03 25-Dec-2016

 ---------------------------------------
 #p UM062X/6-311+G** force int=superfine
 ---------------------------------------

 -------------------
 Title Card Required
 -------------------
 Symbolic Z-matrix:
 Charge =  0 Multiplicity = 1

                         Standard orientation:
 ---------------------------------------------------------------------
 Center     Atomic      Atomic             Coordinates (Angstroms)
 Number     Number       Type             X           Y           Z
 ---------------------------------------------------------------------
      1          6           0       -0.029710   -0.187049    1.206968
      2          6           0        0.029711    0.187049   -1.206968
      3          1           0        0.417241   -0.760029   -1.556488
      4          1           0       -0.700214   -1.032944    1.271630
      5          1           0        0.700213    1.032947   -1.271635
      6          1           0       -1.013017    0.384558   -1.414307
      7          1           0       -0.417242    0.760028    1.556488
      8          1           0        1.013017   -0.384560    1.414314
 ---------------------------------------------------------------------

 SCF Done:  E(UM062X) =  -79.6822826882     A.U. after    9 cycles

 The electronic state is 1-A.
 Alpha  occ. eigenvalues --  -10.55723 -10.55718  -0.77461  -0.74212  -0.48306
 Alpha  occ. eigenvalues --   -0.48306  -0.46380  -0.46380  -0.28255
 Alpha virt. eigenvalues --   -0.01765   0.02548   0.05519   0.05519   0.06944
 Alpha virt. eigenvalues --    0.08230   0.08230   0.10135   0.12976   0.18182
 Alpha virt. eigenvalues --    0.18182   0.22039   0.22039   0.24376   0.26151

  Beta  occ. eigenvalues --  -10.55723 -10.55718  -0.77461  -0.74212  -0.48306
  Beta  occ. eigenvalues --   -0.48306  -0.46380  -0.46380  -0.28255
  Beta virt. eigenvalues --   -0.01765   0.02548   0.05519   0.05519   0.06944
  Beta virt. eigenvalues --    0.08230   0.08230   0.10135   0.12976   0.18182
  Beta virt. eigenvalues --    0.18182   0.22039   0.22039   0.24376   0.26151

 Mulliken charges and spin densities:
               1          2
     1  C   -0.510584   0.000000
     2  C   -0.510584  -0.000000
     3  H    0.170194   0.000000
     4  H    0.170195   0.000000
     5  H    0.170195   0.000000
     6  H    0.170194   0.000000
     7  H    0.170194  -0.000000
     8  H    0.170194  -0.000000
 Sum of Mulliken charges =  -0.00000   0.00000

 Dipole moment (field-independent basis, Debye):
    X=             -0.0000    Y=             -0.0000    Z=             -0.0000  Tot=              0.0000
 Quadrupole moment (field-independent basis, Debye-Ang):
   XX=            -14.8028   YY=            -14.8193   ZZ=            -15.5085
   XY=             -0.0027   XZ=              0.0174   YZ=              0.1095

 Normal termination of Gaussian 16 at Tue Nov 19 12:57:37 2024.
