 Gaussian 16, Revision A.03,
 Gaussian 16:  ES64L-G16RevA.03 25-Dec-2016

 --------------------------------------------
 #p opt UM062X/6-311+G** nosymm int=superfine
 --------------------------------------------

 -------------------
 Title Card Required
 -------------------
 Symbolic Z-matrix:
 Charge =  0 Multiplicity = 1

 SCF Done:  E(UM062X) =  -51.7697876660     A.U. after   10 cycles
 SCF Done:  E(UM062X) =  -51.7753532420     A.U. after    9 cycles
 SCF Done:  E(UM062X) =  -51.7789167619     A.U. after   11 cycles
 SCF Done:  E(UM062X) =  -51.7789206055     A.U. after   11 cycles
 SCF Done:  E(UM062X) =  -51.7789205184     A.U. after    8 cycles
 SCF Done:  E(UM062X) =  -51.7789206112     A.U. after    8 cycles
 Optimization completed.
    -- Stationary point found.

                          Input orientation:
 ---------------------------------------------------------------------
 Center     Atomic      Atomic             Coordinates (Angstroms)
 Number     Number       Type             X           Y           Z
 ---------------------------------------------------------------------
      1          5           0       -2.370607    0.000000    0.000000
      2          5           0        2.370607    0.000000    0.000000
      3          1           0       -2.819229   -1.090925    0.000007
      4          1           0        2.819229    1.090910   -0.005868
      5          1           0       -2.819231    1.090924   -0.000011
      6          1           0        2.819231   -1.090909    0.005864
 ---------------------------------------------------------------------

 Alpha  occ. eigenvalues --   -7.11692  -7.11691  -0.58124  -0.57977  -0.45586
 Alpha  occ. eigenvalues --   -0.45561  -0.18787
 Alpha virt. eigenvalues --   -0.09316  -0.05170  -0.04595   0.02205   0.02983
 Alpha virt. eigenvalues --    0.03824   0.05267   0.06062   0.07098   0.08338
 Alpha virt. eigenvalues --    0.09926   0.14925   0.15554   0.17375   0.22600

  Beta  occ. eigenvalues --   -7.11692  -7.11691  -0.58124  -0.57977  -0.45586
  Beta  occ. eigenvalues --   -0.45561  -0.18787
  Beta virt. eigenvalues --   -0.09316  -0.05170  -0.04595   0.02205   0.02983
  Beta virt. eigenvalues --    0.03824   0.05267   0.06062   0.07098   0.08338
  Beta virt. eigenvalues --    0.09926   0.14925   0.15554   0.17375   0.22600

 Mulliken charges and spin densities:
               1          2
     1  B   -0.066535  -0.000002
     2  B   -0.066535   0.000002
     3  H    0.033267  -0.000000
     4  H    0.033267   0.000000
     5  H    0.033267  -0.000000
     6  H    0.033267   0.000000
 Sum of Mulliken charges =  -0.00000  -0.00000

 Dipole moment (field-independent basis, Debye):
    X=              0.0000    Y=             -0.0000    Z=             -0.0000  Tot=              0.0000
 Quadrupole moment (field-independent basis, Debye-Ang):
   XX=             -9.4502   YY=            -16.9941   ZZ=            -14.7084
   XY=             -0.0000   XZ=              0.0000   YZ=              0.0062

 Normal termination of Gaussian 16 at Mon Apr 21 17:15:09 2025.
