 Gaussian 16, Revision A.03,
 Gaussian 16:  ES64L-G16RevA.03 25-Dec-2016

 --------------------------------------------
 #p opt UM062X/6-311+G** nosymm int=superfine
 --------------------------------------------

 -------------------
 Title Card Required
 -------------------
 Symbolic Z-matrix:
 Charge =  0 Multiplicity = 1

 SCF Done:  E(UM062X) =  -379.685808889     A.U. after   13 cycles
 SCF Done:  E(UM062X) =  -379.686443867     A.U. after   10 cycles
 SCF Done:  E(UM062X) =  -379.686444310     A.U. after    8 cycles
 Optimization completed.
    -- Stationary point found.

                          Input orientation:
 ---------------------------------------------------------------------
 Center     Atomic      Atomic             Coordinates (Angstroms)
 Number     Number       Type             X           Y           Z
 ---------------------------------------------------------------------
      1          6           0       -1.265377    0.000000    0.000000
      2         15           0        1.265377    0.000000    0.000000
      3          1           0       -2.370779   -0.000000   -0.000000
 ---------------------------------------------------------------------

 Alpha  occ. eigenvalues --  -78.10643 -10.69462  -6.92142  -5.03755  -5.03269
 Alpha  occ. eigenvalues --   -5.03269  -0.74781  -0.63056  -0.41685  -0.26900
 Alpha  occ. eigenvalues --   -0.26900
 Alpha virt. eigenvalues --   -0.12101  -0.12101  -0.08748   0.01574   0.04027
 Alpha virt. eigenvalues --    0.05602   0.05602   0.07304   0.09712   0.09712
 Alpha virt. eigenvalues --    0.15366   0.20130   0.30211   0.32746   0.32746

  Beta  occ. eigenvalues --  -78.10643 -10.69462  -6.92142  -5.03755  -5.03269
  Beta  occ. eigenvalues --   -5.03269  -0.74781  -0.63056  -0.41685  -0.26900
  Beta  occ. eigenvalues --   -0.26900
  Beta virt. eigenvalues --   -0.12101  -0.12101  -0.08748   0.01574   0.04027
  Beta virt. eigenvalues --    0.05602   0.05602   0.07304   0.09712   0.09712
  Beta virt. eigenvalues --    0.15366   0.20130   0.30211   0.32746   0.32746

 Mulliken charges and spin densities:
               1          2
     1  C   -0.325978   0.000000
     2  P    0.109701  -0.000000
     3  H    0.216277   0.000000
 Sum of Mulliken charges =  -0.00000   0.00000

 Dipole moment (field-independent basis, Debye):
    X=             -0.8684    Y=             -0.0000    Z=             -0.0000  Tot=              0.8684
 Quadrupole moment (field-independent basis, Debye-Ang):
   XX=            -11.9805   YY=            -23.2819   ZZ=            -23.2819
   XY=              0.0000   XZ=              0.0000   YZ=              0.0000

 Normal termination of Gaussian 16 at Mon Apr 21 19:29:10 2025.
