 Gaussian 16, Revision A.03,
 Gaussian 16:  ES64L-G16RevA.03 25-Dec-2016

 --------------------------------------------
 #p opt UM062X/6-311+G** nosymm int=superfine
 --------------------------------------------

 -------------------
 Title Card Required
 -------------------
 Symbolic Z-matrix:
 Charge =  0 Multiplicity = 1

 SCF Done:  E(UM062X) =  -437.174978509     A.U. after   17 cycles
 SCF Done:  E(UM062X) =  -437.176269509     A.U. after   14 cycles
 SCF Done:  E(UM062X) =  -437.176722560     A.U. after   14 cycles
 SCF Done:  E(UM062X) =  -437.176722596     A.U. after   14 cycles
 SCF Done:  E(UM062X) =  -437.176722656     A.U. after   14 cycles
 SCF Done:  E(UM062X) =  -437.176722857     A.U. after   11 cycles
 Optimization completed.
    -- Stationary point found.

                          Input orientation:
 ---------------------------------------------------------------------
 Center     Atomic      Atomic             Coordinates (Angstroms)
 Number     Number       Type             X           Y           Z
 ---------------------------------------------------------------------
      1          6           0       -1.677140    0.000000    0.000000
      2         16           0        1.677140    0.000000    0.000000
      3          1           0       -2.333301   -0.884837    0.000066
      4          1           0       -2.334102    0.884243   -0.000067
 ---------------------------------------------------------------------

 Alpha  occ. eigenvalues --  -89.92351 -10.65754  -8.28353  -6.21087  -6.19597
 Alpha  occ. eigenvalues --   -6.19590  -0.79350  -0.72579  -0.52296  -0.35238
 Alpha  occ. eigenvalues --   -0.30039  -0.30015
 Alpha virt. eigenvalues --   -0.14513  -0.11652   0.00843   0.05294   0.05360
 Alpha virt. eigenvalues --    0.06641   0.08355   0.08887   0.09321   0.14136
 Alpha virt. eigenvalues --    0.16768   0.17396   0.36479   0.37071   0.37196

  Beta  occ. eigenvalues --  -89.92351 -10.65754  -8.28353  -6.21087  -6.19597
  Beta  occ. eigenvalues --   -6.19590  -0.79350  -0.72579  -0.52296  -0.35238
  Beta  occ. eigenvalues --   -0.30039  -0.30015
  Beta virt. eigenvalues --   -0.14513  -0.11652   0.00843   0.05294   0.05360
  Beta virt. eigenvalues --    0.06641   0.08355   0.08887   0.09321   0.14136
  Beta virt. eigenvalues --    0.16768   0.17396   0.36479   0.37071   0.37196

 Mulliken charges and spin densities:
               1          2
     1  C   -0.263565   0.000000
     2  S   -0.064378  -0.000000
     3  H    0.163966  -0.000000
     4  H    0.163977   0.000000
 Sum of Mulliken charges =  -0.00000   0.00000

 Dipole moment (field-independent basis, Debye):
    X=             -3.7555    Y=             -0.0008    Z=             -0.0000  Tot=              3.7555
 Quadrupole moment (field-independent basis, Debye-Ang):
   XX=            -11.7889   YY=            -22.2876   ZZ=            -21.9603
   XY=             -0.0000   XZ=             -0.0000   YZ=              0.0000

 Normal termination of Gaussian 16 at Mon Apr 21 19:45:16 2025.
