 Gaussian 16, Revision A.03,
 Gaussian 16:  ES64L-G16RevA.03 25-Dec-2016

 --------------------------------------------
 #p opt UM062X/6-311+G** nosymm int=superfine
 --------------------------------------------

 -------------------
 Title Card Required
 -------------------
 Symbolic Z-matrix:
 Charge =  0 Multiplicity = 1

 SCF Done:  E(UM062X) =  -74.0332153958     A.U. after   13 cycles
 SCF Done:  E(UM062X) =  -74.0793947869     A.U. after   10 cycles
 SCF Done:  E(UM062X) =  -74.1593571291     A.U. after   11 cycles
 SCF Done:  E(UM062X) =  -74.3005018851     A.U. after   11 cycles
 SCF Done:  E(UM062X) =  -74.3013688494     A.U. after   11 cycles
 SCF Done:  E(UM062X) =  -74.3507741977     A.U. after   11 cycles
 SCF Done:  E(UM062X) =  -74.4162676972     A.U. after   10 cycles
 SCF Done:  E(UM062X) =  -74.5332426978     A.U. after   11 cycles
 SCF Done:  E(UM062X) =  -74.5622765899     A.U. after    9 cycles
 SCF Done:  E(UM062X) =  -74.6618123272     A.U. after   12 cycles
 SCF Done:  E(UM062X) =  -74.6625392631     A.U. after    9 cycles
 SCF Done:  E(UM062X) =  -74.6648107076     A.U. after   11 cycles
 SCF Done:  E(UM062X) =  -74.6648371808     A.U. after   10 cycles
 SCF Done:  E(UM062X) =  -74.6648342056     A.U. after   10 cycles
 SCF Done:  E(UM062X) =  -74.6648308380     A.U. after   10 cycles
 SCF Done:  E(UM062X) =  -74.6648371486     A.U. after   10 cycles
 Optimization completed.
    -- Stationary point found.

                          Input orientation:
 ---------------------------------------------------------------------
 Center     Atomic      Atomic             Coordinates (Angstroms)
 Number     Number       Type             X           Y           Z
 ---------------------------------------------------------------------
      1          6           0       -0.279254   -0.000000    0.000000
      2          6           0        0.279254    0.000000   -0.000000
      3          1           0       -1.273121   -0.718896   -0.000594
      4          1           0       -1.274286    0.715646   -0.000341
      5          1           0        1.273120    0.718898    0.000465
      6          1           0        1.274283   -0.715650    0.000213
 ---------------------------------------------------------------------

 Alpha  occ. eigenvalues --  -11.29123 -10.66389  -0.87690  -0.79420  -0.76300
 Alpha  occ. eigenvalues --   -0.61327  -0.38857  -0.20997
 Alpha virt. eigenvalues --   -0.02170   0.02104   0.03377   0.04083   0.07850
 Alpha virt. eigenvalues --    0.09839   0.10384   0.10606   0.15676   0.18401
 Alpha virt. eigenvalues --    0.20791   0.27726   0.38652   0.40524   0.44079

  Beta  occ. eigenvalues --  -11.29123 -10.66389  -0.87690  -0.79420  -0.76300
  Beta  occ. eigenvalues --   -0.61327  -0.38857  -0.20997
  Beta virt. eigenvalues --   -0.02170   0.02104   0.03377   0.04083   0.07850
  Beta virt. eigenvalues --    0.09839   0.10384   0.10606   0.15676   0.18401
  Beta virt. eigenvalues --    0.20791   0.27726   0.38652   0.40524   0.44079

 Mulliken charges and spin densities:
               1          2
     1  C   -0.240254  -0.000000
     2  C   -0.240296   0.000000
     3  H    0.119611  -0.000000
     4  H    0.120665  -0.000000
     5  H    0.119610   0.000000
     6  H    0.120663   0.000000
 Sum of Mulliken charges =  -0.00000  -0.00000

 Dipole moment (field-independent basis, Debye):
    X=             -0.0000    Y=             -0.0000    Z=             -0.0001  Tot=              0.0001
 Quadrupole moment (field-independent basis, Debye-Ang):
   XX=            -14.6158   YY=            -14.5387   ZZ=            -12.6548
   XY=             -0.0165   XZ=              0.0004   YZ=             -0.0003

 Normal termination of Gaussian 16 at Tue Nov 19 09:53:40 2024.
