 Gaussian 16, Revision A.03,
 Gaussian 16:  ES64L-G16RevA.03 25-Dec-2016

 --------------------------------------------
 #p opt UM062X/6-311+G** nosymm int=superfine
 --------------------------------------------

 -------------------
 Title Card Required
 -------------------
 Symbolic Z-matrix:
 Charge =  0 Multiplicity = 1

 SCF Done:  E(UM062X) =  -380.927945939     A.U. after   18 cycles
 SCF Done:  E(UM062X) =  -380.930868614     A.U. after   17 cycles
 SCF Done:  E(UM062X) =  -380.931840205     A.U. after   18 cycles
 SCF Done:  E(UM062X) =  -380.931873242     A.U. after   15 cycles
 SCF Done:  E(UM062X) =  -380.932099198     A.U. after   17 cycles
 SCF Done:  E(UM062X) =  -380.932143138     A.U. after   15 cycles
 SCF Done:  E(UM062X) =  -380.932155902     A.U. after   21 cycles
 SCF Done:  E(UM062X) =  -380.932156662     A.U. after   16 cycles
 SCF Done:  E(UM062X) =  -380.932156852     A.U. after   15 cycles
 SCF Done:  E(UM062X) =  -380.932157057     A.U. after   15 cycles
 SCF Done:  E(UM062X) =  -380.932157717     A.U. after   19 cycles
 SCF Done:  E(UM062X) =  -380.932160986     A.U. after   16 cycles
 SCF Done:  E(UM062X) =  -380.932164006     A.U. after   21 cycles
 SCF Done:  E(UM062X) =  -380.932164794     A.U. after   17 cycles
 SCF Done:  E(UM062X) =  -380.932164913     A.U. after   13 cycles
 SCF Done:  E(UM062X) =  -380.932165553     A.U. after   19 cycles
 SCF Done:  E(UM062X) =  -380.932165566     A.U. after   15 cycles
 SCF Done:  E(UM062X) =  -380.932165674     A.U. after   15 cycles
 SCF Done:  E(UM062X) =  -380.932165673     A.U. after   16 cycles
 Optimization completed.
    -- Stationary point found.

                          Input orientation:
 ---------------------------------------------------------------------
 Center     Atomic      Atomic             Coordinates (Angstroms)
 Number     Number       Type             X           Y           Z
 ---------------------------------------------------------------------
      1          6           0       -2.130452    0.000000    0.000000
      2         15           0        2.130452    0.000000    0.000000
      3          1           0       -2.856956   -0.834428    0.047977
      4          1           0        1.831656   -1.387319   -0.071912
      5          1           0       -2.786126    0.891331   -0.043142
 ---------------------------------------------------------------------

 Alpha  occ. eigenvalues --  -78.04598 -10.62116  -6.86863  -4.98877  -4.98102
 Alpha  occ. eigenvalues --   -4.97641  -0.76798  -0.65704  -0.48867  -0.38376
 Alpha  occ. eigenvalues --   -0.32746  -0.24505
 Alpha virt. eigenvalues --   -0.11410  -0.09320   0.01455   0.03718   0.04611
 Alpha virt. eigenvalues --    0.06015   0.06923   0.07306   0.08776   0.10429
 Alpha virt. eigenvalues --    0.13465   0.17366   0.18871   0.31265   0.33226

  Beta  occ. eigenvalues --  -78.04598 -10.62116  -6.86863  -4.98877  -4.98102
  Beta  occ. eigenvalues --   -4.97641  -0.76798  -0.65704  -0.48867  -0.38376
  Beta  occ. eigenvalues --   -0.32746  -0.24505
  Beta virt. eigenvalues --   -0.11410  -0.09320   0.01455   0.03718   0.04611
  Beta virt. eigenvalues --    0.06015   0.06923   0.07306   0.08776   0.10429
  Beta virt. eigenvalues --    0.13465   0.17366   0.18871   0.31265   0.33226

 Mulliken charges and spin densities:
               1          2
     1  C   -0.283473   0.000000
     2  P    0.041228  -0.000000
     3  H    0.137579   0.000000
     4  H   -0.032788  -0.000000
     5  H    0.137455  -0.000000
 Sum of Mulliken charges =  -0.00000  -0.00000

 Dipole moment (field-independent basis, Debye):
    X=             -2.5116    Y=             -0.5854    Z=             -0.0274  Tot=              2.5791
 Quadrupole moment (field-independent basis, Debye-Ang):
   XX=            -12.3340   YY=            -21.3277   ZZ=            -25.2440
   XY=             -2.1871   XZ=             -0.0950   YZ=              0.2703

 Normal termination of Gaussian 16 at Mon Apr 21 19:20:45 2025.
