 Gaussian 16, Revision A.03,
 Gaussian 16:  ES64L-G16RevA.03 25-Dec-2016

 --------------------------------------------
 #p opt UM062X/6-311+G** nosymm int=superfine
 --------------------------------------------

 -------------------
 Title Card Required
 -------------------
 Symbolic Z-matrix:
 Charge =  0 Multiplicity = 1

 SCF Done:  E(UM062X) =  -80.6547863278     A.U. after   10 cycles
 SCF Done:  E(UM062X) =  -80.6548572007     A.U. after    9 cycles
 SCF Done:  E(UM062X) =  -80.6548575286     A.U. after    8 cycles
 Optimization completed.
    -- Stationary point found.

                          Input orientation:
 ---------------------------------------------------------------------
 Center     Atomic      Atomic             Coordinates (Angstroms)
 Number     Number       Type             X           Y           Z
 ---------------------------------------------------------------------
      1          5           0       -0.817066    0.000000    0.000000
      2          7           0        0.817066    0.000000    0.000000
      3          1           0       -1.984918    0.000665   -0.000001
      4          1           0        1.819882    0.002157   -0.000000
 ---------------------------------------------------------------------

 Alpha  occ. eigenvalues --  -14.75817  -7.16889  -0.86993  -0.60097  -0.52533
 Alpha  occ. eigenvalues --   -0.31069  -0.31069
 Alpha virt. eigenvalues --   -0.02165  -0.02165   0.00901   0.01588   0.05492
 Alpha virt. eigenvalues --    0.05492   0.07686   0.10572   0.18249   0.18249
 Alpha virt. eigenvalues --    0.22163   0.24684   0.31093   0.40178   0.40178

  Beta  occ. eigenvalues --  -14.75817  -7.16889  -0.86993  -0.60097  -0.52533
  Beta  occ. eigenvalues --   -0.31069  -0.31069
  Beta virt. eigenvalues --   -0.02165  -0.02165   0.00901   0.01588   0.05492
  Beta virt. eigenvalues --    0.05492   0.07686   0.10572   0.18249   0.18249
  Beta virt. eigenvalues --    0.22163   0.24684   0.31093   0.40178   0.40178

 Mulliken charges and spin densities:
               1          2
     1  B    0.275583   0.000000
     2  N   -0.659704  -0.000000
     3  H    0.077949  -0.000000
     4  H    0.306172  -0.000000
 Sum of Mulliken charges =  -0.00000   0.00000

 Dipole moment (field-independent basis, Debye):
    X=             -1.6538    Y=              0.0031    Z=             -0.0000  Tot=              1.6538
 Quadrupole moment (field-independent basis, Debye-Ang):
   XX=             -6.7158   YY=            -14.6172   ZZ=            -14.6172
   XY=              0.0088   XZ=              0.0000   YZ=             -0.0000

 Normal termination of Gaussian 16 at Mon Apr 21 17:56:15 2025.
