 Gaussian 16, Revision A.03,
 Gaussian 16:  ES64L-G16RevA.03 25-Dec-2016

 --------------------------------
 #p UM062X/6-311+G** Pop=NBO Read
 --------------------------------

 ------------
 NBO Analysis
 ------------
 Symbolic Z-matrix:
 Charge =  0 Multiplicity = 1

                         Standard orientation:
 ---------------------------------------------------------------------
 Center     Atomic      Atomic             Coordinates (Angstroms)
 Number     Number       Type             X           Y           Z
 ---------------------------------------------------------------------
      1          6           0        0.000000    0.000000   -1.111703
      2         16           0        0.000000    0.000000    0.416889
 ---------------------------------------------------------------------

 SCF Done:  E(UM062X) =  -436.161540591     A.U. after   10 cycles

 The electronic state is 1-SG.
 Alpha  occ. eigenvalues --  -89.97390 -10.65574  -8.32495  -6.24222  -6.24182
 Alpha  occ. eigenvalues --   -6.24182  -0.93404  -0.59370  -0.41440  -0.41440
 Alpha  occ. eigenvalues --   -0.37531
 Alpha virt. eigenvalues --   -0.04528  -0.04528   0.03227   0.03768   0.06056
 Alpha virt. eigenvalues --    0.06056   0.09520   0.11858   0.11858   0.17823
 Alpha virt. eigenvalues --    0.20557   0.48641   0.50109   0.50109   0.54210

  Beta  occ. eigenvalues --  -89.97390 -10.65574  -8.32495  -6.24222  -6.24182
  Beta  occ. eigenvalues --   -6.24182  -0.93404  -0.59370  -0.41440  -0.41440
  Beta  occ. eigenvalues --   -0.37531
  Beta virt. eigenvalues --   -0.04528  -0.04528   0.03227   0.03768   0.06056
  Beta virt. eigenvalues --    0.06056   0.09520   0.11858   0.11858   0.17823
  Beta virt. eigenvalues --    0.20557   0.48641   0.50109   0.50109   0.54210

 Mulliken charges and spin densities:
               1          2
     1  C   -0.328463   0.000000
     2  S    0.328463   0.000000
 Sum of Mulliken charges =  -0.00000   0.00000

 Dipole moment (field-independent basis, Debye):
    X=              0.0000    Y=              0.0000    Z=              1.7614  Tot=              1.7614
 Quadrupole moment (field-independent basis, Debye-Ang):
   XX=            -18.2837   YY=            -18.2837   ZZ=            -20.8802
   XY=              0.0000   XZ=              0.0000   YZ=              0.0000

 Summary of Natural Population Analysis:

                                       Natural Population
                Natural  -----------------------------------------------
    Atom  No    Charge         Core      Valence    Rydberg      Total
 -----------------------------------------------------------------------
      C    1   -0.09353      0.99990     2.06660    0.02703     3.09353
      S    2    0.09353      4.99952     2.88407    0.02288     7.90647
 =======================================================================
   * Total *   -0.00000      5.99943     4.95066    0.04991    11.00000

 Normal termination of Gaussian 16 at Wed Apr 16 04:15:45 2025.
