 Gaussian 16, Revision A.03,
 Gaussian 16:  ES64L-G16RevA.03 25-Dec-2016

 ----------------------------------------------------------------------
 #p opt UM062X/6-311+G** nosymm int=superfine SCF=(MaxCycle=200,NoVarAc
 c,noincfock) guess=read
 ----------------------------------------------------------------------

 -------------------
 Title Card Required
 -------------------
 Symbolic Z-matrix:
 Charge =  1 Multiplicity = 2

 SCF Done:  E(UM062X) =  -379.306423115     A.U. after   21 cycles
 SCF Done:  E(UM062X) =  -379.307113362     A.U. after   16 cycles
 SCF Done:  E(UM062X) =  -379.307114556     A.U. after   12 cycles
 Optimization completed.
    -- Stationary point found.

                          Input orientation:
 ---------------------------------------------------------------------
 Center     Atomic      Atomic             Coordinates (Angstroms)
 Number     Number       Type             X           Y           Z
 ---------------------------------------------------------------------
      1          6           0       -1.719427    0.000000    0.000000
      2         15           0        1.719427    0.000000    0.000000
      3          1           0       -2.838448    0.000002    0.000009
 ---------------------------------------------------------------------

 Alpha  occ. eigenvalues --  -78.34134 -10.97309  -7.15602  -5.27730  -5.27363
 Alpha  occ. eigenvalues --   -5.26365  -0.99393  -0.87080  -0.65854  -0.52615
 Alpha  occ. eigenvalues --   -0.47268
 Alpha virt. eigenvalues --   -0.38258  -0.35035  -0.35011  -0.13343  -0.09949
 Alpha virt. eigenvalues --   -0.08642  -0.08326  -0.06759  -0.05670  -0.05285
 Alpha virt. eigenvalues --   -0.02216   0.00729   0.15798   0.16006   0.16791

  Beta  occ. eigenvalues --  -78.33386 -10.97265  -7.15376  -5.27149  -5.26243
  Beta  occ. eigenvalues --   -5.25431  -0.99150  -0.81966  -0.65657  -0.46268
  Beta virt. eigenvalues --   -0.37138  -0.34937  -0.33633  -0.30126  -0.13843
  Beta virt. eigenvalues --   -0.10865  -0.08572  -0.08347  -0.06825  -0.05331
  Beta virt. eigenvalues --   -0.05027  -0.02599   0.00680   0.13451   0.15464

 Mulliken charges and spin densities:
               1          2
     1  C    0.191430   0.058983
     2  P    0.550645   0.943931
     3  H    0.257925  -0.002914
 Sum of Mulliken charges =   1.00000   1.00000

 Dipole moment (field-independent basis, Debye):
    X=             -1.4233    Y=              0.0000    Z=              0.0000  Tot=              1.4233
 Quadrupole moment (field-independent basis, Debye-Ang):
   XX=              8.8409   YY=            -16.7512   ZZ=            -19.7937
   XY=             -0.0000   XZ=              0.0000   YZ=              0.3808

 Normal termination of Gaussian 16 at Mon Apr 21 23:58:31 2025.
