 Gaussian 16, Revision A.03,
 Gaussian 16:  ES64L-G16RevA.03 25-Dec-2016

 --------------------------------------------
 #p opt UM062X/6-311+G** nosymm int=superfine
 --------------------------------------------

 -------------------
 Title Card Required
 -------------------
 Symbolic Z-matrix:
 Charge =  1 Multiplicity = 2

 SCF Done:  E(UM062X) =  -79.3176592942     A.U. after   10 cycles
 SCF Done:  E(UM062X) =  -79.3187664689     A.U. after    9 cycles
 SCF Done:  E(UM062X) =  -79.3187739281     A.U. after    9 cycles
 Optimization completed.
    -- Stationary point found.

                          Input orientation:
 ---------------------------------------------------------------------
 Center     Atomic      Atomic             Coordinates (Angstroms)
 Number     Number       Type             X           Y           Z
 ---------------------------------------------------------------------
      1          6           0       -1.954541    0.000000    0.000000
      2          6           0        1.954541    0.000000    0.000000
      3          1           0        1.982601   -0.937586    0.542655
      4          1           0       -1.980891   -0.938685   -0.540834
      5          1           0        1.981870    0.938778    0.540626
      6          1           0        1.980944   -0.001168   -1.083340
      7          1           0       -1.982654    0.937690   -0.542474
      8          1           0       -1.981869    0.000945    1.083319
 ---------------------------------------------------------------------

 Alpha  occ. eigenvalues --  -10.83626 -10.83625  -1.02187  -1.01825  -0.73228
 Alpha  occ. eigenvalues --   -0.73228  -0.73102  -0.73101  -0.47717
 Alpha virt. eigenvalues --   -0.37549  -0.12801  -0.10169  -0.09480  -0.09480
 Alpha virt. eigenvalues --   -0.06223  -0.06222  -0.04390  -0.02964  -0.00163
 Alpha virt. eigenvalues --   -0.00160   0.01353   0.01355   0.02774   0.08646

  Beta  occ. eigenvalues --  -10.83408 -10.83408  -0.99531  -0.99300  -0.72708
  Beta  occ. eigenvalues --   -0.72708  -0.72563  -0.72562
  Beta virt. eigenvalues --   -0.32675  -0.26623  -0.16521  -0.10916  -0.10916
  Beta virt. eigenvalues --   -0.10215  -0.06221  -0.06221  -0.05192  -0.02013
  Beta virt. eigenvalues --   -0.00419  -0.00416   0.01616   0.01619   0.02532

 Mulliken charges and spin densities:
               1          2
     1  C   -0.251999   0.557151
     2  C   -0.251999   0.557151
     3  H    0.250684  -0.019050
     4  H    0.250645  -0.019053
     5  H    0.250665  -0.019055
     6  H    0.250650  -0.019046
     7  H    0.250685  -0.019050
     8  H    0.250670  -0.019048
 Sum of Mulliken charges =   1.00000   1.00000

 Dipole moment (field-independent basis, Debye):
    X=             -0.0000    Y=             -0.0000    Z=             -0.0001  Tot=              0.0001
 Quadrupole moment (field-independent basis, Debye-Ang):
   XX=              7.0128   YY=            -11.1123   ZZ=            -11.1124
   XY=             -0.0018   XZ=              0.0010   YZ=              0.0000

 Normal termination of Gaussian 16 at Wed Nov 13 12:54:42 2024.
