 Gaussian 16, Revision A.03,
 Gaussian 16:  ES64L-G16RevA.03 25-Dec-2016

 --------------------------------------------
 #p opt UM062X/6-311+G** nosymm int=superfine
 --------------------------------------------

 -------------------
 Title Card Required
 -------------------
 Symbolic Z-matrix:
 Charge =  0 Multiplicity = 1

 SCF Done:  E(UM062X) =  -474.354460317     A.U. after   35 cycles
 SCF Done:  E(UM062X) =  -474.354840719     A.U. after   22 cycles
 SCF Done:  E(UM062X) =  -474.355763322     A.U. after   26 cycles
 SCF Done:  E(UM062X) =  -474.356361938     A.U. after   24 cycles
 SCF Done:  E(UM062X) =  -474.356539865     A.U. after   26 cycles
 SCF Done:  E(UM062X) =  -474.356634731     A.U. after   22 cycles
 SCF Done:  E(UM062X) =  -474.356641766     A.U. after   34 cycles
 SCF Done:  E(UM062X) =  -474.356645507     A.U. after   21 cycles
 SCF Done:  E(UM062X) =  -474.356647839     A.U. after   22 cycles
 SCF Done:  E(UM062X) =  -474.356647410     A.U. after   25 cycles
 SCF Done:  E(UM062X) =  -474.356656241     A.U. after   32 cycles
 SCF Done:  E(UM062X) =  -474.356632304     A.U. after   24 cycles
 SCF Done:  E(UM062X) =  -474.356650223     A.U. after   25 cycles
 SCF Done:  E(UM062X) =  -474.356656837     A.U. after   21 cycles
 SCF Done:  E(UM062X) =  -474.356655683     A.U. after   22 cycles
 SCF Done:  E(UM062X) =  -474.356038862     A.U. after   20 cycles
 SCF Done:  E(UM062X) =  -474.356634150     A.U. after   23 cycles
 SCF Done:  E(UM062X) =  -474.356656230     A.U. after   12 cycles
 Optimization completed.
    -- Stationary point found.

                          Input orientation:
 ---------------------------------------------------------------------
 Center     Atomic      Atomic             Coordinates (Angstroms)
 Number     Number       Type             X           Y           Z
 ---------------------------------------------------------------------
      1          8           0       -1.964392    0.000000    0.000000
      2         16           0        1.964392    0.000000    0.000000
      3          1           0       -1.921838   -0.635608   -0.731652
      4          1           0        1.690104    0.894395    0.969306
 ---------------------------------------------------------------------

 Alpha  occ. eigenvalues --  -89.97764 -19.67092  -8.33963  -6.26166  -6.25812
 Alpha  occ. eigenvalues --   -6.25241  -1.08377  -0.83969  -0.52457  -0.49835
 Alpha  occ. eigenvalues --   -0.39684  -0.35880  -0.32920
 Alpha virt. eigenvalues --   -0.23726   0.01520   0.03866   0.04650   0.05288
 Alpha virt. eigenvalues --    0.06605   0.12714   0.19148   0.19732   0.21100
 Alpha virt. eigenvalues --    0.24252   0.30775   0.33942   0.34938   0.38875

  Beta  occ. eigenvalues --  -89.97764 -19.67092  -8.33963  -6.26166  -6.25812
  Beta  occ. eigenvalues --   -6.25241  -1.08377  -0.83969  -0.52457  -0.49835
  Beta  occ. eigenvalues --   -0.39684  -0.35880  -0.32920
  Beta virt. eigenvalues --   -0.23726   0.01520   0.03866   0.04650   0.05288
  Beta virt. eigenvalues --    0.06605   0.12714   0.19148   0.19732   0.21100
  Beta virt. eigenvalues --    0.24252   0.30775   0.33942   0.34938   0.38875

 Mulliken charges and spin densities:
               1          2
     1  O   -0.383642   0.000000
     2  S    0.032119  -0.000000
     3  H    0.245767  -0.000000
     4  H    0.105756  -0.000000
 Sum of Mulliken charges =  -0.00000   0.00000

 Dipole moment (field-independent basis, Debye):
    X=              2.4596    Y=             -0.3542    Z=             -0.4623  Tot=              2.5276
 Quadrupole moment (field-independent basis, Debye-Ang):
   XX=            -18.8353   YY=            -19.7987   ZZ=            -19.1213
   XY=              3.8164   XZ=              4.2915   YZ=              3.2783

 Normal termination of Gaussian 16 at Thu May 15 13:42:08 2025.
