 Gaussian 16, Revision A.03,
 Gaussian 16:  ES64L-G16RevA.03 25-Dec-2016

 --------------------------------------------
 #p opt UM062X/6-311+G** nosymm int=superfine
 --------------------------------------------

 -------------------
 Title Card Required
 -------------------
 Symbolic Z-matrix:
 Charge = -1 Multiplicity = 2

 SCF Done:  E(UM062X) =  -53.2004888571     A.U. after   11 cycles
 SCF Done:  E(UM062X) =  -53.2046119016     A.U. after   11 cycles
 SCF Done:  E(UM062X) =  -53.2055247318     A.U. after   10 cycles
 SCF Done:  E(UM062X) =  -53.2055272268     A.U. after    8 cycles
 Optimization completed.
    -- Stationary point found.

                          Input orientation:
 ---------------------------------------------------------------------
 Center     Atomic      Atomic             Coordinates (Angstroms)
 Number     Number       Type             X           Y           Z
 ---------------------------------------------------------------------
      1          5           0       -2.065672    0.000000    0.000000
      2          5           0        2.065672    0.000000    0.000000
      3          1           0        2.130131   -1.196928   -0.000015
      4          1           0       -2.130006   -0.598460    1.036583
      5          1           0        2.130165    0.598478   -1.036563
      6          1           0        2.129943    0.598446    1.036594
      7          1           0       -2.130139    1.196927   -0.000001
      8          1           0       -2.130094   -0.598465   -1.036575
 ---------------------------------------------------------------------

 Alpha  occ. eigenvalues --   -6.84689  -6.84688  -0.40049  -0.39575  -0.21883
 Alpha  occ. eigenvalues --   -0.21883  -0.21661  -0.21661   0.01152
 Alpha virt. eigenvalues --    0.11392   0.16771   0.17704   0.17704   0.18288
 Alpha virt. eigenvalues --    0.18288   0.19062   0.22949   0.23961   0.32850
 Alpha virt. eigenvalues --    0.32850   0.34312   0.34312   0.36325   0.38754

  Beta  occ. eigenvalues --   -6.84651  -6.84651  -0.38319  -0.38008  -0.21721
  Beta  occ. eigenvalues --   -0.21721  -0.21489  -0.21489
  Beta virt. eigenvalues --    0.10179   0.13361   0.13541   0.14891   0.14892
  Beta virt. eigenvalues --    0.17800   0.17800   0.20973   0.22148   0.25079
  Beta virt. eigenvalues --    0.31776   0.31776   0.33489   0.33489   0.34849

 Mulliken charges and spin densities:
               1          2
     1  B   -0.348130   0.557620
     2  B   -0.348131   0.557620
     3  H   -0.050634  -0.019217
     4  H   -0.050616  -0.019202
     5  H   -0.050622  -0.019201
     6  H   -0.050613  -0.019202
     7  H   -0.050634  -0.019217
     8  H   -0.050619  -0.019202
 Sum of Mulliken charges =  -1.00000   1.00000

 Dipole moment (field-independent basis, Debye):
    X=             -0.0000    Y=             -0.0000    Z=              0.0001  Tot=              0.0001
 Quadrupole moment (field-independent basis, Debye-Ang):
   XX=            -44.4743   YY=            -24.3192   ZZ=            -24.3191
   XY=              0.0001   XZ=              0.0000   YZ=              0.0000

 Normal termination of Gaussian 16 at Mon Apr 21 16:55:08 2025.
