 Gaussian 16, Revision A.03,
 Gaussian 16:  ES64L-G16RevA.03 25-Dec-2016

 --------------------------------------------
 #p opt UM062X/6-311+G** nosymm int=superfine
 --------------------------------------------

 -------------------
 Title Card Required
 -------------------
 Symbolic Z-matrix:
 Charge =  0 Multiplicity = 1

 SCF Done:  E(UM062X) =  -684.922365086     A.U. after   11 cycles
 SCF Done:  E(UM062X) =  -684.923270803     A.U. after   10 cycles
 SCF Done:  E(UM062X) =  -684.923987418     A.U. after   11 cycles
 SCF Done:  E(UM062X) =  -684.924441773     A.U. after   11 cycles
 SCF Done:  E(UM062X) =  -684.924594037     A.U. after   11 cycles
 SCF Done:  E(UM062X) =  -684.924654597     A.U. after   10 cycles
 SCF Done:  E(UM062X) =  -684.924670471     A.U. after   11 cycles
 SCF Done:  E(UM062X) =  -684.924695330     A.U. after   10 cycles
 SCF Done:  E(UM062X) =  -684.924723227     A.U. after   12 cycles
 SCF Done:  E(UM062X) =  -684.924743722     A.U. after   10 cycles
 SCF Done:  E(UM062X) =  -684.924816905     A.U. after    9 cycles
 SCF Done:  E(UM062X) =  -684.924829173     A.U. after   13 cycles
 SCF Done:  E(UM062X) =  -684.924876269     A.U. after   12 cycles
 SCF Done:  E(UM062X) =  -684.924880831     A.U. after    9 cycles
 SCF Done:  E(UM062X) =  -684.924867648     A.U. after   12 cycles
 SCF Done:  E(UM062X) =  -684.924882235     A.U. after   10 cycles
 SCF Done:  E(UM062X) =  -684.924883420     A.U. after   11 cycles
 SCF Done:  E(UM062X) =  -684.924883506     A.U. after    8 cycles
 SCF Done:  E(UM062X) =  -684.924883710     A.U. after   11 cycles
 SCF Done:  E(UM062X) =  -684.924883759     A.U. after    7 cycles
 Optimization completed.
    -- Stationary point found.

                          Input orientation:
 ---------------------------------------------------------------------
 Center     Atomic      Atomic             Coordinates (Angstroms)
 Number     Number       Type             X           Y           Z
 ---------------------------------------------------------------------
      1         15           0       -2.142217    0.000000    0.000000
      2         15           0        2.142217    0.000000    0.000000
      3          1           0        2.049537   -1.032573    0.968445
      4          1           0       -2.044909    1.097735    0.893508
      5          1           0        2.049763   -0.929378   -1.068173
      6          1           0       -2.049173    0.852119   -1.130609
 ---------------------------------------------------------------------

 Alpha  occ. eigenvalues --  -78.05063 -78.05062  -6.87450  -6.87449  -4.99000
 Alpha  occ. eigenvalues --   -4.99000  -4.98874  -4.98873  -4.98691  -4.98690
 Alpha  occ. eigenvalues --   -0.71226  -0.70823  -0.45116  -0.44950  -0.36274
 Alpha  occ. eigenvalues --   -0.36105  -0.24751
 Alpha virt. eigenvalues --   -0.14713   0.01622   0.02870   0.03216   0.04032
 Alpha virt. eigenvalues --    0.04841   0.05956   0.06082   0.06115   0.06224
 Alpha virt. eigenvalues --    0.07988   0.13753   0.18518   0.28596   0.29254

  Beta  occ. eigenvalues --  -78.05063 -78.05062  -6.87450  -6.87449  -4.99000
  Beta  occ. eigenvalues --   -4.99000  -4.98874  -4.98873  -4.98691  -4.98690
  Beta  occ. eigenvalues --   -0.71226  -0.70823  -0.45116  -0.44950  -0.36274
  Beta  occ. eigenvalues --   -0.36105  -0.24751
  Beta virt. eigenvalues --   -0.14713   0.01622   0.02870   0.03216   0.04032
  Beta virt. eigenvalues --    0.04841   0.05956   0.06082   0.06115   0.06224
  Beta virt. eigenvalues --    0.07988   0.13753   0.18518   0.28596   0.29254

 Mulliken charges and spin densities:
               1          2
     1  P   -0.005182  -0.000000
     2  P   -0.005504   0.000000
     3  H    0.003196  -0.000000
     4  H    0.003238   0.000000
     5  H    0.002139  -0.000000
     6  H    0.002113   0.000000
 Sum of Mulliken charges =  -0.00000  -0.00000

 Dipole moment (field-independent basis, Debye):
    X=              0.0010    Y=             -0.0048    Z=             -0.1522  Tot=              0.1523
 Quadrupole moment (field-independent basis, Debye-Ang):
   XX=            -28.6029   YY=            -31.2420   ZZ=            -28.5568
   XY=             -4.3322   XZ=              0.1550   YZ=              0.0945

 Normal termination of Gaussian 16 at Mon Apr 21 20:57:02 2025.
