 Gaussian 16, Revision A.03,
 Gaussian 16:  ES64L-G16RevA.03 25-Dec-2016

 --------------------------------------------
 #p opt UM062X/6-311+G** nosymm int=superfine
 --------------------------------------------

 -------------------
 Title Card Required
 -------------------
 Symbolic Z-matrix:
 Charge =  0 Multiplicity = 1

 SCF Done:  E(UM062X) =  -51.9874234310     A.U. after    8 cycles
 SCF Done:  E(UM062X) =  -51.9874815178     A.U. after    7 cycles
 SCF Done:  E(UM062X) =  -51.9880319222     A.U. after    8 cycles
 SCF Done:  E(UM062X) =  -51.9834163021     A.U. after    9 cycles
 SCF Done:  E(UM062X) =  -51.9918680516     A.U. after   10 cycles
 SCF Done:  E(UM062X) =  -51.9824825811     A.U. after   10 cycles
 SCF Done:  E(UM062X) =  -51.9981585280     A.U. after   10 cycles
 SCF Done:  E(UM062X) =  -51.9948014193     A.U. after   10 cycles
 SCF Done:  E(UM062X) =  -52.0008185924     A.U. after    9 cycles
 SCF Done:  E(UM062X) =  -52.0008977110     A.U. after    9 cycles
 SCF Done:  E(UM062X) =  -52.0006525759     A.U. after    9 cycles
 SCF Done:  E(UM062X) =  -52.0006552478     A.U. after    9 cycles
 SCF Done:  E(UM062X) =  -52.0009559246     A.U. after    6 cycles
 SCF Done:  E(UM062X) =  -52.0009650113     A.U. after    7 cycles
 Optimization completed.
    -- Stationary point found.

                          Input orientation:
 ---------------------------------------------------------------------
 Center     Atomic      Atomic             Coordinates (Angstroms)
 Number     Number       Type             X           Y           Z
 ---------------------------------------------------------------------
      1          5           0       -0.920607    0.000000    0.000000
      2          5           0        0.920607    0.000000    0.000000
      3          1           0       -1.532946   -0.724144   -0.721554
      4          1           0        1.532963    0.721351   -0.724330
      5          1           0       -1.531706    0.724580    0.722243
      6          1           0        1.531684   -0.721764    0.725078
 ---------------------------------------------------------------------

 Alpha  occ. eigenvalues --   -7.05624  -7.05593  -0.60398  -0.53486  -0.41362
 Alpha  occ. eigenvalues --   -0.41360  -0.34122
 Alpha virt. eigenvalues --   -0.03168  -0.03164   0.02301   0.03099   0.04730
 Alpha virt. eigenvalues --    0.04731   0.06749   0.07733   0.07734   0.11308
 Alpha virt. eigenvalues --    0.15507   0.20601   0.21622   0.22540   0.22544

  Beta  occ. eigenvalues --   -7.05624  -7.05593  -0.60398  -0.53486  -0.41362
  Beta  occ. eigenvalues --   -0.41360  -0.34122
  Beta virt. eigenvalues --   -0.03168  -0.03164   0.02301   0.03099   0.04730
  Beta virt. eigenvalues --    0.04731   0.06749   0.07733   0.07734   0.11308
  Beta virt. eigenvalues --    0.15507   0.20601   0.21622   0.22540   0.22544

 Mulliken charges and spin densities:
               1          2
     1  B   -0.033559   0.000000
     2  B   -0.033559  -0.000000
     3  H    0.016790   0.000000
     4  H    0.016791   0.000000
     5  H    0.016768  -0.000000
     6  H    0.016768  -0.000000
 Sum of Mulliken charges =  -0.00000   0.00000

 Dipole moment (field-independent basis, Debye):
    X=              0.0000    Y=             -0.0000    Z=             -0.0002  Tot=              0.0002
 Quadrupole moment (field-independent basis, Debye-Ang):
   XX=            -16.8481   YY=            -14.8370   ZZ=            -14.8386
   XY=              0.0005   XZ=             -0.0001   YZ=             -0.0000

 Normal termination of Gaussian 16 at Mon Apr 21 17:02:53 2025.
