 Gaussian 16, Revision A.03,
 Gaussian 16:  ES64L-G16RevA.03 25-Dec-2016

 ---------------------------------------------------------
 #p opt UM062X/6-311+G** nosymm int=superfine SCF=NoVarAcc
 ---------------------------------------------------------

 -------------------
 Title Card Required
 -------------------
 Symbolic Z-matrix:
 Charge =  1 Multiplicity = 2

 SCF Done:  E(UM062X) =  -77.8995986540     A.U. after   10 cycles
 SCF Done:  E(UM062X) =  -77.9035317351     A.U. after    9 cycles
 SCF Done:  E(UM062X) =  -77.9061056184     A.U. after    9 cycles
 SCF Done:  E(UM062X) =  -77.9061089996     A.U. after    8 cycles
 Optimization completed.
    -- Stationary point found.

                          Input orientation:
 ---------------------------------------------------------------------
 Center     Atomic      Atomic             Coordinates (Angstroms)
 Number     Number       Type             X           Y           Z
 ---------------------------------------------------------------------
      1          6           0       -2.056027    0.000000    0.000000
      2          6           0        2.056027    0.000000    0.000000
      3          1           0       -2.614745   -0.942663    0.000000
      4          1           0       -2.614688    0.942696    0.000000
      5          1           0        2.614745    0.942663   -0.000000
      6          1           0        2.614688   -0.942696   -0.000000
 ---------------------------------------------------------------------

 Alpha  occ. eigenvalues --  -10.88325 -10.88325  -0.99654  -0.99611  -0.74339
 Alpha  occ. eigenvalues --   -0.74314  -0.57798  -0.56735
 Alpha virt. eigenvalues --   -0.31546  -0.31272  -0.12576  -0.10792  -0.08909
 Alpha virt. eigenvalues --   -0.06996  -0.06310  -0.05749  -0.04136  -0.01392
 Alpha virt. eigenvalues --   -0.00230   0.00446   0.02323   0.05264   0.27459

  Beta  occ. eigenvalues --  -10.87539 -10.87538  -0.97478  -0.97321  -0.73311
  Beta  occ. eigenvalues --   -0.73277  -0.46306
  Beta virt. eigenvalues --   -0.36385  -0.29745  -0.29385  -0.12347  -0.10918
  Beta virt. eigenvalues --   -0.08740  -0.06807  -0.06436  -0.04425  -0.03968
  Beta virt. eigenvalues --   -0.01182   0.00507   0.00806   0.02431   0.05987

 Mulliken charges and spin densities:
               1          2
     1  C    0.023981   0.486247
     2  C    0.023981   0.486247
     3  H    0.238010   0.006877
     4  H    0.238009   0.006877
     5  H    0.238010   0.006877
     6  H    0.238009   0.006877
 Sum of Mulliken charges =   1.00000   1.00000

 Dipole moment (field-independent basis, Debye):
    X=             -0.0000    Y=              0.0000    Z=              0.0000  Tot=              0.0000
 Quadrupole moment (field-independent basis, Debye-Ang):
   XX=             21.6047   YY=             -9.4415   ZZ=            -10.7357
   XY=             -0.0001   XZ=             -0.0000   YZ=             -0.0000

 Normal termination of Gaussian 16 at Tue Dec  3 13:34:22 2024.
