 Gaussian 16, Revision A.03,
 Gaussian 16:  ES64L-G16RevA.03 25-Dec-2016

 --------------------------------------------
 #p opt UM062X/6-311+G** nosymm int=superfine
 --------------------------------------------

 -------------------
 Title Card Required
 -------------------
 Symbolic Z-matrix:
 Charge =  1 Multiplicity = 2

 SCF Done:  E(UM062X) =  -579.692182503     A.U. after   15 cycles
 SCF Done:  E(UM062X) =  -579.697564804     A.U. after   13 cycles
 SCF Done:  E(UM062X) =  -579.702416069     A.U. after   15 cycles
 SCF Done:  E(UM062X) =  -579.702486660     A.U. after   12 cycles
 SCF Done:  E(UM062X) =  -579.702622230     A.U. after   13 cycles
 SCF Done:  E(UM062X) =  -579.702680690     A.U. after   11 cycles
 SCF Done:  E(UM062X) =  -579.702694816     A.U. after   12 cycles
 SCF Done:  E(UM062X) =  -579.702697676     A.U. after   11 cycles
 SCF Done:  E(UM062X) =  -579.702697833     A.U. after   10 cycles
 Optimization completed.
    -- Stationary point found.

                          Input orientation:
 ---------------------------------------------------------------------
 Center     Atomic      Atomic             Coordinates (Angstroms)
 Number     Number       Type             X           Y           Z
 ---------------------------------------------------------------------
      1         14           0       -1.677975    0.000000    0.000000
      2         14           0        1.677975    0.000000    0.000000
      3          1           0       -1.880911   -1.491121   -0.000001
      4          1           0        1.880944    1.491122   -0.000001
 ---------------------------------------------------------------------

 Alpha  occ. eigenvalues --  -67.27287 -67.27287  -5.81459  -5.81459  -4.12576
 Alpha  occ. eigenvalues --   -4.12576  -4.12505  -4.12505  -4.11842  -4.11842
 Alpha  occ. eigenvalues --   -0.77563  -0.75400  -0.53849  -0.53223  -0.44406
 Alpha virt. eigenvalues --   -0.29628  -0.26797  -0.25741  -0.11974  -0.10432
 Alpha virt. eigenvalues --   -0.09027  -0.08687  -0.08314  -0.07480  -0.05902
 Alpha virt. eigenvalues --   -0.05771  -0.05753  -0.02993   0.12420   0.13910

  Beta  occ. eigenvalues --  -67.27010 -67.27010  -5.81363  -5.81362  -4.12433
  Beta  occ. eigenvalues --   -4.12433  -4.11895  -4.11895  -4.11665  -4.11665
  Beta  occ. eigenvalues --   -0.75591  -0.73576  -0.53488  -0.51617
  Beta virt. eigenvalues --   -0.29635  -0.29064  -0.26155  -0.21270  -0.12901
  Beta virt. eigenvalues --   -0.10348  -0.08973  -0.08804  -0.08187  -0.07029
  Beta virt. eigenvalues --   -0.05647  -0.05539  -0.05313  -0.02528   0.11241

 Mulliken charges and spin densities:
               1          2
     1  Si   0.568896   0.509633
     2  Si   0.568893   0.509639
     3  H   -0.068895  -0.009636
     4  H   -0.068894  -0.009636
 Sum of Mulliken charges =   1.00000   1.00000

 Dipole moment (field-independent basis, Debye):
    X=             -0.0000    Y=             -0.0000    Z=             -0.0000  Tot=              0.0000
 Quadrupole moment (field-independent basis, Debye-Ang):
   XX=             -6.2383   YY=            -27.1485   ZZ=            -19.6167
   XY=              1.6623   XZ=             -0.0000   YZ=              0.0000

 Normal termination of Gaussian 16 at Mon Apr 21 20:39:09 2025.
