 Gaussian 16, Revision A.03,
 Gaussian 16:  ES64L-G16RevA.03 25-Dec-2016

 --------------------------------------------
 #p opt UM062X/6-311+G** nosymm int=superfine
 --------------------------------------------

 -------------------
 Title Card Required
 -------------------
 Symbolic Z-matrix:
 Charge =  1 Multiplicity = 2

 SCF Done:  E(UM062X) =  -379.331888781     A.U. after   24 cycles
 SCF Done:  E(UM062X) =  -379.332247562     A.U. after   19 cycles
 Optimization completed.
    -- Stationary point found.

                          Input orientation:
 ---------------------------------------------------------------------
 Center     Atomic      Atomic             Coordinates (Angstroms)
 Number     Number       Type             X           Y           Z
 ---------------------------------------------------------------------
      1          6           0       -1.419427    0.000000    0.000000
      2         15           0        1.419427    0.000000    0.000000
      3          1           0       -2.528011   -0.000000    0.000000
 ---------------------------------------------------------------------

 Alpha  occ. eigenvalues --  -78.39552 -10.94111  -7.20916  -5.32769  -5.32466
 Alpha  occ. eigenvalues --   -5.31122  -0.99152  -0.89057  -0.66138  -0.52125
 Alpha  occ. eigenvalues --   -0.49942
 Alpha virt. eigenvalues --   -0.40114  -0.37719  -0.35943  -0.12764  -0.10450
 Alpha virt. eigenvalues --   -0.08816  -0.08424  -0.07436  -0.05165  -0.05005
 Alpha virt. eigenvalues --   -0.00596   0.02936   0.13615   0.14297   0.14506

  Beta  occ. eigenvalues --  -78.39549 -10.93493  -7.20973  -5.32548  -5.32033
  Beta  occ. eigenvalues --   -5.31888  -0.94729  -0.88405  -0.63531  -0.52748
  Beta virt. eigenvalues --   -0.36395  -0.35507  -0.30392  -0.29379  -0.14177
  Beta virt. eigenvalues --   -0.10802  -0.08682  -0.08645  -0.07931  -0.04911
  Beta virt. eigenvalues --   -0.04631  -0.02715   0.05132   0.12065   0.13072

 Mulliken charges and spin densities:
               1          2
     1  C   -0.010912   0.933819
     2  P    0.726109   0.092559
     3  H    0.284803  -0.026377
 Sum of Mulliken charges =   1.00000   1.00000

 Dipole moment (field-independent basis, Debye):
    X=              0.5670    Y=             -0.0000    Z=              0.0000  Tot=              0.5670
 Quadrupole moment (field-independent basis, Debye-Ang):
   XX=              2.8998   YY=            -19.5790   ZZ=            -16.1470
   XY=             -0.0000   XZ=              0.0000   YZ=              0.1745

 Normal termination of Gaussian 16 at Mon Apr 21 19:23:21 2025.
