 Gaussian 16, Revision A.03,
 Gaussian 16:  ES64L-G16RevA.03 25-Dec-2016

 ---------------------------------------------------------
 #p opt UM062X/6-311+G** nosymm int=superfine SCF=NoVarAcc
 ---------------------------------------------------------

 -------------------
 Title Card Required
 -------------------
 Symbolic Z-matrix:
 Charge =  1 Multiplicity = 2

 SCF Done:  E(UM062X) =  -76.5845853242     A.U. after   33 cycles
 SCF Done:  E(UM062X) =  -76.5849405096     A.U. after   67 cycles
 Optimization completed.
    -- Stationary point found.

                          Input orientation:
 ---------------------------------------------------------------------
 Center     Atomic      Atomic             Coordinates (Angstroms)
 Number     Number       Type             X           Y           Z
 ---------------------------------------------------------------------
      1          6           0       -7.382160    0.000000    0.000000
      2          6           0        7.382160    0.000000    0.000000
      3          1           0       -8.500199    0.000000   -0.000000
      4          1           0        8.500198   -0.000000   -0.000000
 ---------------------------------------------------------------------

 Alpha  occ. eigenvalues --  -10.90849 -10.90849  -0.94647  -0.94647  -0.59660
 Alpha  occ. eigenvalues --   -0.59660  -0.41748
 Alpha virt. eigenvalues --   -0.39823  -0.29582  -0.29582  -0.08621  -0.08621
 Alpha virt. eigenvalues --   -0.03291  -0.03291  -0.03123  -0.03123  -0.03032
 Alpha virt. eigenvalues --   -0.03032   0.02803   0.02803   0.31057   0.31057

  Beta  occ. eigenvalues --  -10.90435 -10.90435  -0.92286  -0.92286  -0.58267
  Beta  occ. eigenvalues --   -0.58267
  Beta virt. eigenvalues --   -0.27700  -0.27700  -0.26068  -0.26068  -0.08820
  Beta virt. eigenvalues --   -0.08820  -0.03047  -0.03047  -0.02494  -0.02494
  Beta virt. eigenvalues --   -0.01568  -0.01568   0.04607   0.04608   0.30398

 Mulliken charges and spin densities:
               1          2
     1  C    0.299281   0.515440
     2  C    0.299281   0.515440
     3  H    0.200719  -0.015440
     4  H    0.200719  -0.015440
 Sum of Mulliken charges =   1.00000   1.00000

 Dipole moment (field-independent basis, Debye):
    X=             -0.0000    Y=              0.0000    Z=              0.0000  Tot=              0.0000
 Quadrupole moment (field-independent basis, Debye-Ang):
   XX=            308.2707   YY=            -10.4559   ZZ=            -10.4568
   XY=             -0.0000   XZ=              0.0000   YZ=             -0.0004

 Normal termination of Gaussian 16 at Tue Dec  3 17:45:06 2024.
