 Gaussian 16, Revision A.03,
 Gaussian 16:  ES64L-G16RevA.03 25-Dec-2016

 --------------------------------------------
 #p opt UM062X/6-311+G** nosymm int=superfine
 --------------------------------------------

 -------------------
 Title Card Required
 -------------------
 Symbolic Z-matrix:
 Charge =  0 Multiplicity = 1

 SCF Done:  E(UM062X) =  -581.142486596     A.U. after    9 cycles
 SCF Done:  E(UM062X) =  -581.162179048     A.U. after    8 cycles
 SCF Done:  E(UM062X) =  -581.174213592     A.U. after    8 cycles
 SCF Done:  E(UM062X) =  -581.174233550     A.U. after    7 cycles
 Optimization completed.
    -- Stationary point found.

                          Input orientation:
 ---------------------------------------------------------------------
 Center     Atomic      Atomic             Coordinates (Angstroms)
 Number     Number       Type             X           Y           Z
 ---------------------------------------------------------------------
      1         14           0       -2.337518    0.000000    0.000000
      2         14           0        2.337518    0.000000    0.000000
      3          1           0       -3.400915   -1.084050    0.000056
      4          1           0        3.400915    1.084050   -0.000530
      5          1           0       -3.400919    1.084046    0.000277
      6          1           0        3.400919   -1.084045    0.000862
 ---------------------------------------------------------------------

 Alpha  occ. eigenvalues --  -67.01268 -67.01268  -5.55992  -5.55991  -3.87238
 Alpha  occ. eigenvalues --   -3.87238  -3.86696  -3.86696  -3.86555  -3.86555
 Alpha  occ. eigenvalues --   -0.57252  -0.57177  -0.37825  -0.37798  -0.29076
 Alpha  occ. eigenvalues --   -0.27197
 Alpha virt. eigenvalues --   -0.08168  -0.07537   0.02083   0.02431   0.03020
 Alpha virt. eigenvalues --    0.04561   0.05653   0.06072   0.06289   0.07204
 Alpha virt. eigenvalues --    0.08145   0.09088   0.11354   0.14038   0.28953

  Beta  occ. eigenvalues --  -67.01268 -67.01268  -5.55992  -5.55991  -3.87238
  Beta  occ. eigenvalues --   -3.87238  -3.86696  -3.86696  -3.86555  -3.86555
  Beta  occ. eigenvalues --   -0.57252  -0.57177  -0.37825  -0.37798  -0.29076
  Beta  occ. eigenvalues --   -0.27197
  Beta virt. eigenvalues --   -0.08168  -0.07537   0.02083   0.02431   0.03020
  Beta virt. eigenvalues --    0.04561   0.05653   0.06072   0.06289   0.07204
  Beta virt. eigenvalues --    0.08145   0.09088   0.11354   0.14038   0.28953

 Mulliken charges and spin densities:
               1          2
     1  Si   0.322499   0.000000
     2  Si   0.322499  -0.000000
     3  H   -0.161250  -0.000000
     4  H   -0.161250   0.000000
     5  H   -0.161250  -0.000000
     6  H   -0.161250   0.000000
 Sum of Mulliken charges =  -0.00000  -0.00000

 Dipole moment (field-independent basis, Debye):
    X=              0.0000    Y=              0.0000    Z=              0.0001  Tot=              0.0001
 Quadrupole moment (field-independent basis, Debye-Ang):
   XX=            -35.4586   YY=            -32.7358   ZZ=            -24.3834
   XY=             -0.0000   XZ=              0.0000   YZ=              0.0023

 Normal termination of Gaussian 16 at Mon Apr 21 20:34:46 2025.
