 Gaussian 16, Revision A.03,
 Gaussian 16:  ES64L-G16RevA.03 25-Dec-2016

 ---------------------------------------
 #p UM062X/6-311+G** force int=superfine
 ---------------------------------------

 -------------------
 Title Card Required
 -------------------
 Symbolic Z-matrix:
 Charge =  0 Multiplicity = 1

                         Standard orientation:
 ---------------------------------------------------------------------
 Center     Atomic      Atomic             Coordinates (Angstroms)
 Number     Number       Type             X           Y           Z
 ---------------------------------------------------------------------
      1          7           0        0.000000    0.000000    1.045048
      2          7           0        0.000000    0.000000   -1.045048
 ---------------------------------------------------------------------

 SCF Done:  E(UM062X) =  -108.989408296     A.U. after   10 cycles

 The electronic state is 1-SGG.
 Alpha  occ. eigenvalues --  -14.97709 -14.97694  -0.92212  -0.83156  -0.42100
 Alpha  occ. eigenvalues --   -0.37301  -0.37301
 Alpha virt. eigenvalues --   -0.19539  -0.19539  -0.11495   0.07441   0.09644
 Alpha virt. eigenvalues --    0.11645   0.11645   0.15535   0.15535   0.15874
 Alpha virt. eigenvalues --    0.24576   0.74112   0.74112   0.77976   0.82515

  Beta  occ. eigenvalues --  -14.97709 -14.97694  -0.92212  -0.83156  -0.42100
  Beta  occ. eigenvalues --   -0.37301  -0.37301
  Beta virt. eigenvalues --   -0.19539  -0.19539  -0.11495   0.07441   0.09644
  Beta virt. eigenvalues --    0.11645   0.11645   0.15535   0.15535   0.15874
  Beta virt. eigenvalues --    0.24576   0.74112   0.74112   0.77976   0.82515

 Mulliken charges and spin densities:
               1          2
     1  N    0.000000  -0.000000
     2  N    0.000000  -0.000000
 Sum of Mulliken charges =   0.00000  -0.00000

 Dipole moment (field-independent basis, Debye):
    X=              0.0000    Y=              0.0000    Z=              0.0000  Tot=              0.0000
 Quadrupole moment (field-independent basis, Debye-Ang):
   XX=            -12.2192   YY=            -12.2192   ZZ=            -11.0708
   XY=              0.0000   XZ=             -0.0000   YZ=              0.0000

 Optimization completed.
    -- Stationary point found.
 Normal termination of Gaussian 16 at Wed Feb 26 13:56:53 2025.
