 Gaussian 16, Revision A.03,
 Gaussian 16:  ES64L-G16RevA.03 25-Dec-2016

 --------------------------------------------
 #p opt UM062X/6-311+G** nosymm int=superfine
 --------------------------------------------

 -------------------
 Title Card Required
 -------------------
 Symbolic Z-matrix:
 Charge =  0 Multiplicity = 1

 SCF Done:  E(UM062X) =  -94.2617918526     A.U. after   14 cycles
 SCF Done:  E(UM062X) =  -94.2657584886     A.U. after   16 cycles
 SCF Done:  E(UM062X) =  -94.2690522503     A.U. after   16 cycles
 SCF Done:  E(UM062X) =  -94.2697593848     A.U. after   17 cycles
 SCF Done:  E(UM062X) =  -94.2704011752     A.U. after   15 cycles
 SCF Done:  E(UM062X) =  -94.2703850102     A.U. after   17 cycles
 SCF Done:  E(UM062X) =  -94.2704169205     A.U. after   15 cycles
 SCF Done:  E(UM062X) =  -94.2704422885     A.U. after   16 cycles
 SCF Done:  E(UM062X) =  -94.2704437250     A.U. after   13 cycles
 SCF Done:  E(UM062X) =  -94.2704503594     A.U. after   20 cycles
 SCF Done:  E(UM062X) =  -94.2704556558     A.U. after   16 cycles
 SCF Done:  E(UM062X) =  -94.2704557522     A.U. after   13 cycles
 Optimization completed.
    -- Stationary point found.

                          Input orientation:
 ---------------------------------------------------------------------
 Center     Atomic      Atomic             Coordinates (Angstroms)
 Number     Number       Type             X           Y           Z
 ---------------------------------------------------------------------
      1          6           0       -1.481637    0.000000    0.000000
      2          7           0        1.481637    0.000000    0.000000
      3          1           0       -2.316151   -0.722551   -0.002492
      4          1           0        1.243689   -1.007638    0.000847
      5          1           0       -1.954630    0.995763    0.001839
 ---------------------------------------------------------------------

 Alpha  occ. eigenvalues --  -14.79842 -10.64261  -0.86213  -0.78190  -0.50909
 Alpha  occ. eigenvalues --   -0.43077  -0.34248  -0.30494
 Alpha virt. eigenvalues --   -0.10554  -0.08853   0.01408   0.05401   0.06886
 Alpha virt. eigenvalues --    0.07702   0.12614   0.14355   0.16622   0.17641
 Alpha virt. eigenvalues --    0.18770   0.19908   0.26039   0.42908   0.46180

  Beta  occ. eigenvalues --  -14.79842 -10.64261  -0.86213  -0.78190  -0.50909
  Beta  occ. eigenvalues --   -0.43077  -0.34248  -0.30494
  Beta virt. eigenvalues --   -0.10554  -0.08853   0.01408   0.05401   0.06886
  Beta virt. eigenvalues --    0.07702   0.12614   0.14355   0.16622   0.17641
  Beta virt. eigenvalues --    0.18770   0.19908   0.26039   0.42908   0.46180

 Mulliken charges and spin densities:
               1          2
     1  C   -0.295194   0.000000
     2  N   -0.219928  -0.000000
     3  H    0.158597   0.000000
     4  H    0.197819  -0.000000
     5  H    0.158707  -0.000000
 Sum of Mulliken charges =  -0.00000  -0.00000

 Dipole moment (field-independent basis, Debye):
    X=             -3.4158    Y=             -1.1974    Z=              0.0004  Tot=              3.6196
 Quadrupole moment (field-independent basis, Debye-Ang):
   XX=             -9.2488   YY=            -12.7083   ZZ=            -15.0040
   XY=             -2.8677   XZ=              0.0016   YZ=             -0.0029

 Normal termination of Gaussian 16 at Mon Apr 21 18:21:55 2025.
