 Gaussian 16, Revision A.03,
 Gaussian 16:  ES64L-G16RevA.03 25-Dec-2016

 --------------------------------------------
 #p opt UM062X/6-311+G** nosymm int=superfine
 --------------------------------------------

 -------------------
 Title Card Required
 -------------------
 Symbolic Z-matrix:
 Charge =  0 Multiplicity = 1

 SCF Done:  E(UM062X) =  -51.9132622881     A.U. after    8 cycles
 SCF Done:  E(UM062X) =  -51.9152822204     A.U. after    7 cycles
 SCF Done:  E(UM062X) =  -51.9160206747     A.U. after    9 cycles
 SCF Done:  E(UM062X) =  -51.9160154376     A.U. after    8 cycles
 SCF Done:  E(UM062X) =  -51.9160210132     A.U. after    8 cycles
 SCF Done:  E(UM062X) =  -51.9160214431     A.U. after    6 cycles
 SCF Done:  E(UM062X) =  -51.9043906934     A.U. after   11 cycles
 SCF Done:  E(UM062X) =  -51.9161137028     A.U. after   10 cycles
 SCF Done:  E(UM062X) =  -51.9101861462     A.U. after   12 cycles
 SCF Done:  E(UM062X) =  -51.9168396106     A.U. after   10 cycles
 SCF Done:  E(UM062X) =  -51.8880828579     A.U. after   12 cycles
 SCF Done:  E(UM062X) =  -51.9168491850     A.U. after    7 cycles
 SCF Done:  E(UM062X) =  -51.9168491864     A.U. after    4 cycles
 SCF Done:  E(UM062X) =  -51.9173934549     A.U. after   11 cycles
 SCF Done:  E(UM062X) =  -51.9171843165     A.U. after   11 cycles
 SCF Done:  E(UM062X) =  -51.9175156736     A.U. after   10 cycles
 SCF Done:  E(UM062X) =  -51.9175461982     A.U. after    9 cycles
 SCF Done:  E(UM062X) =  -51.9175464979     A.U. after    8 cycles
 Optimization completed.
    -- Stationary point found.

                          Input orientation:
 ---------------------------------------------------------------------
 Center     Atomic      Atomic             Coordinates (Angstroms)
 Number     Number       Type             X           Y           Z
 ---------------------------------------------------------------------
      1          5           0       -1.270607    0.000000    0.000000
      2          5           0        1.270607    0.000000    0.000000
      3          1           0       -1.816215   -0.745143   -0.740821
      4          1           0        1.816381    0.740936   -0.744978
      5          1           0       -1.814984    0.745438    0.741445
      6          1           0        1.815816   -0.741027    0.745309
 ---------------------------------------------------------------------

 Alpha  occ. eigenvalues --   -7.09073  -7.09066  -0.57783  -0.55426  -0.42659
 Alpha  occ. eigenvalues --   -0.42648  -0.27234
 Alpha virt. eigenvalues --   -0.03737  -0.03734   0.01945   0.02328   0.04912
 Alpha virt. eigenvalues --    0.04914   0.06933   0.07135   0.07495   0.07496
 Alpha virt. eigenvalues --    0.11071   0.15879   0.18678   0.20921   0.20926

  Beta  occ. eigenvalues --   -7.09073  -7.09066  -0.57783  -0.55426  -0.42659
  Beta  occ. eigenvalues --   -0.42648  -0.27234
  Beta virt. eigenvalues --   -0.03737  -0.03734   0.01945   0.02328   0.04912
  Beta virt. eigenvalues --    0.04914   0.06933   0.07135   0.07495   0.07496
  Beta virt. eigenvalues --    0.11071   0.15879   0.18678   0.20921   0.20926

 Mulliken charges and spin densities:
               1          2
     1  B   -0.032707  -0.000000
     2  B   -0.032889   0.000000
     3  H    0.016427  -0.000000
     4  H    0.016382   0.000000
     5  H    0.016412  -0.000000
     6  H    0.016375   0.000000
 Sum of Mulliken charges =  -0.00000   0.00000

 Dipole moment (field-independent basis, Debye):
    X=             -0.0015    Y=              0.0001    Z=              0.0002  Tot=              0.0015
 Quadrupole moment (field-independent basis, Debye-Ang):
   XX=            -15.7597   YY=            -15.1997   ZZ=            -15.1997
   XY=              0.0003   XZ=              0.0004   YZ=              0.0008

 Normal termination of Gaussian 16 at Mon Apr 21 17:13:50 2025.
