 Gaussian 16, Revision A.03,
 Gaussian 16:  ES64L-G16RevA.03 25-Dec-2016

 --------------------------------------------
 #p opt UM062X/6-311+G** nosymm int=superfine
 --------------------------------------------

 -------------------
 Title Card Required
 -------------------
 Symbolic Z-matrix:
 Charge =  0 Multiplicity = 1

 SCF Done:  E(UM062X) =  -76.9370955096     A.U. after   13 cycles
 SCF Done:  E(UM062X) =  -76.9382824346     A.U. after   13 cycles
 SCF Done:  E(UM062X) =  -76.9387728463     A.U. after   13 cycles
 SCF Done:  E(UM062X) =  -76.9388835224     A.U. after   12 cycles
 SCF Done:  E(UM062X) =  -76.9388835683     A.U. after   11 cycles
 Optimization completed.
    -- Stationary point found.

                          Input orientation:
 ---------------------------------------------------------------------
 Center     Atomic      Atomic             Coordinates (Angstroms)
 Number     Number       Type             X           Y           Z
 ---------------------------------------------------------------------
      1          6           0       -1.357625    0.000000    0.000000
      2          6           0        1.357625    0.000000    0.000000
      3          1           0       -1.299594    0.144196    1.106735
      4          1           0        1.299749    0.973244   -0.546338
 ---------------------------------------------------------------------

 Alpha  occ. eigenvalues --  -10.66993 -10.66990  -0.73645  -0.70799  -0.38696
 Alpha  occ. eigenvalues --   -0.38547  -0.27108
 Alpha virt. eigenvalues --   -0.10006  -0.08905  -0.06895   0.02949   0.05582
 Alpha virt. eigenvalues --    0.07438   0.07590   0.09876   0.09989   0.10544
 Alpha virt. eigenvalues --    0.15065   0.17340   0.20088   0.44552   0.46541

  Beta  occ. eigenvalues --  -10.66993 -10.66990  -0.73645  -0.70799  -0.38696
  Beta  occ. eigenvalues --   -0.38547  -0.27108
  Beta virt. eigenvalues --   -0.10006  -0.08905  -0.06895   0.02949   0.05582
  Beta virt. eigenvalues --    0.07438   0.07590   0.09876   0.09989   0.10544
  Beta virt. eigenvalues --    0.15065   0.17340   0.20088   0.44552   0.46541

 Mulliken charges and spin densities:
               1          2
     1  C   -0.137644  -0.000000
     2  C   -0.137675   0.000000
     3  H    0.137660   0.000000
     4  H    0.137659  -0.000000
 Sum of Mulliken charges =   0.00000  -0.00000

 Dipole moment (field-independent basis, Debye):
    X=              0.0001    Y=              1.5841    Z=              0.7944  Tot=              1.7722
 Quadrupole moment (field-independent basis, Debye-Ang):
   XX=            -17.0216   YY=            -12.8374   ZZ=            -13.4441
   XY=              1.6897   XZ=             -3.3690   YZ=              0.4066

 Normal termination of Gaussian 16 at Tue Dec  3 21:50:22 2024.
