 Gaussian 16, Revision A.03,
 Gaussian 16:  ES64L-G16RevA.03 25-Dec-2016

 --------------------------------------------
 #p opt UM062X/6-311+G** nosymm int=superfine
 --------------------------------------------

 -------------------
 Title Card Required
 -------------------
 Symbolic Z-matrix:
 Charge =  0 Multiplicity = 1

 SCF Done:  E(UM062X) =  -437.198770190     A.U. after   18 cycles
 SCF Done:  E(UM062X) =  -437.199119704     A.U. after   13 cycles
 SCF Done:  E(UM062X) =  -437.199256624     A.U. after   14 cycles
 SCF Done:  E(UM062X) =  -437.199248373     A.U. after   13 cycles
 SCF Done:  E(UM062X) =  -437.199257021     A.U. after   13 cycles
 Optimization completed.
    -- Stationary point found.

                          Input orientation:
 ---------------------------------------------------------------------
 Center     Atomic      Atomic             Coordinates (Angstroms)
 Number     Number       Type             X           Y           Z
 ---------------------------------------------------------------------
      1          6           0       -1.452140    0.000000    0.000000
      2         16           0        1.452140    0.000000    0.000000
      3          1           0       -2.072282   -0.904319    0.000101
      4          1           0       -2.072984    0.903837   -0.000051
 ---------------------------------------------------------------------

 Alpha  occ. eigenvalues --  -89.91036 -10.68374  -8.26978  -6.19608  -6.18307
 Alpha  occ. eigenvalues --   -6.18249  -0.81024  -0.71473  -0.54800  -0.37091
 Alpha  occ. eigenvalues --   -0.28878  -0.28828
 Alpha virt. eigenvalues --   -0.13227  -0.12147   0.00550   0.05071   0.05900
 Alpha virt. eigenvalues --    0.06557   0.08604   0.09028   0.09051   0.14171
 Alpha virt. eigenvalues --    0.16611   0.16753   0.36115   0.36989   0.37521

  Beta  occ. eigenvalues --  -89.91036 -10.68374  -8.26978  -6.19608  -6.18307
  Beta  occ. eigenvalues --   -6.18249  -0.81024  -0.71473  -0.54800  -0.37091
  Beta  occ. eigenvalues --   -0.28878  -0.28828
  Beta virt. eigenvalues --   -0.13227  -0.12147   0.00550   0.05071   0.05900
  Beta virt. eigenvalues --    0.06557   0.08604   0.09028   0.09051   0.14171
  Beta virt. eigenvalues --    0.16611   0.16753   0.36115   0.36989   0.37521

 Mulliken charges and spin densities:
               1          2
     1  C   -0.240361   0.000000
     2  S   -0.125631  -0.000000
     3  H    0.182992  -0.000000
     4  H    0.183000   0.000000
 Sum of Mulliken charges =  -0.00000  -0.00000

 Dipole moment (field-independent basis, Debye):
    X=             -4.3938    Y=             -0.0006    Z=              0.0001  Tot=              4.3938
 Quadrupole moment (field-independent basis, Debye-Ang):
   XX=            -13.0777   YY=            -22.1309   ZZ=            -22.1618
   XY=             -0.0003   XZ=              0.0000   YZ=             -0.0000

 Normal termination of Gaussian 16 at Mon Apr 21 19:43:41 2025.
