 Gaussian 16, Revision A.03,
 Gaussian 16:  ES64L-G16RevA.03 25-Dec-2016

 --------------------------------------------
 #p opt UM062X/6-311+G** nosymm int=superfine
 --------------------------------------------

 -------------------
 Title Card Required
 -------------------
 Symbolic Z-matrix:
 Charge =  1 Multiplicity = 2

 SCF Done:  E(UM062X) =  -580.859833603     A.U. after   15 cycles
 SCF Done:  E(UM062X) =  -580.867377951     A.U. after    9 cycles
 SCF Done:  E(UM062X) =  -580.869521650     A.U. after   12 cycles
 SCF Done:  E(UM062X) =  -580.869524556     A.U. after    7 cycles
 Optimization completed.
    -- Stationary point found.

                          Input orientation:
 ---------------------------------------------------------------------
 Center     Atomic      Atomic             Coordinates (Angstroms)
 Number     Number       Type             X           Y           Z
 ---------------------------------------------------------------------
      1         14           0       -2.491295    0.000000    0.000000
      2         14           0        2.491295    0.000000    0.000000
      3          1           0       -3.391913   -1.189474    0.000046
      4          1           0        3.391913    1.189474    0.001074
      5          1           0       -3.391929    1.189463   -0.000038
      6          1           0        3.391929   -1.189462   -0.001065
 ---------------------------------------------------------------------

 Alpha  occ. eigenvalues --  -67.23682 -67.23682  -5.78179  -5.78179  -4.09448
 Alpha  occ. eigenvalues --   -4.09448  -4.09127  -4.09127  -4.08786  -4.08786
 Alpha  occ. eigenvalues --   -0.77704  -0.77658  -0.59510  -0.59498  -0.48625
 Alpha  occ. eigenvalues --   -0.47523
 Alpha virt. eigenvalues --   -0.26501  -0.26161  -0.11917  -0.11815  -0.09191
 Alpha virt. eigenvalues --   -0.08534  -0.07697  -0.06799  -0.06711  -0.05919
 Alpha virt. eigenvalues --   -0.05458  -0.05394  -0.05309  -0.03374   0.13200

  Beta  occ. eigenvalues --  -67.23352 -67.23352  -5.77933  -5.77933  -4.09346
  Beta  occ. eigenvalues --   -4.09346  -4.08678  -4.08678  -4.08357  -4.08357
  Beta  occ. eigenvalues --   -0.75899  -0.75721  -0.58340  -0.58322  -0.41778
  Beta virt. eigenvalues --   -0.33457  -0.25333  -0.24891  -0.11253  -0.10633
  Beta virt. eigenvalues --   -0.09241  -0.07146  -0.06917  -0.06365  -0.06249
  Beta virt. eigenvalues --   -0.05958  -0.05195  -0.05151  -0.04651  -0.02975

 Mulliken charges and spin densities:
               1          2
     1  Si   0.565147   0.390006
     2  Si   0.565146   0.390006
     3  H   -0.032573   0.054997
     4  H   -0.032573   0.054997
     5  H   -0.032573   0.054997
     6  H   -0.032573   0.054997
 Sum of Mulliken charges =   1.00000   1.00000

 Dipole moment (field-independent basis, Debye):
    X=             -0.0000    Y=              0.0000    Z=              0.0000  Tot=              0.0000
 Quadrupole moment (field-independent basis, Debye-Ang):
   XX=              9.8667   YY=            -25.9413   ZZ=            -20.8871
   XY=             -0.0000   XZ=              0.0000   YZ=             -0.0022

 Normal termination of Gaussian 16 at Mon Apr 21 20:28:09 2025.
