 Gaussian 16, Revision A.03,
 Gaussian 16:  ES64L-G16RevA.03 25-Dec-2016

 ---------------------------------------
 #p UM062X/6-311+G** force int=superfine
 ---------------------------------------

 -------------------
 Title Card Required
 -------------------
 Symbolic Z-matrix:
 Charge =  0 Multiplicity = 1

                         Standard orientation:
 ---------------------------------------------------------------------
 Center     Atomic      Atomic             Coordinates (Angstroms)
 Number     Number       Type             X           Y           Z
 ---------------------------------------------------------------------
      1          7           0        0.000000    0.000000    1.295048
      2          7           0        0.000000    0.000000   -1.295048
 ---------------------------------------------------------------------

 SCF Done:  E(UM062X) =  -108.844052253     A.U. after   10 cycles

 The electronic state is 1-SGG.
 Alpha  occ. eigenvalues --  -14.97617 -14.97609  -0.89015  -0.85621  -0.37941
 Alpha  occ. eigenvalues --   -0.34718  -0.34718
 Alpha virt. eigenvalues --   -0.22256  -0.22256  -0.18320   0.07350   0.09344
 Alpha virt. eigenvalues --    0.11499   0.11499   0.15269   0.15269   0.16197
 Alpha virt. eigenvalues --    0.23402   0.72456   0.74827   0.74827   0.81327

  Beta  occ. eigenvalues --  -14.97617 -14.97609  -0.89015  -0.85621  -0.37941
  Beta  occ. eigenvalues --   -0.34718  -0.34718
  Beta virt. eigenvalues --   -0.22256  -0.22256  -0.18320   0.07350   0.09344
  Beta virt. eigenvalues --    0.11499   0.11499   0.15269   0.15269   0.16197
  Beta virt. eigenvalues --    0.23402   0.72456   0.74827   0.74827   0.81327

 Mulliken charges and spin densities:
               1          2
     1  N   -0.000000  -0.000000
     2  N   -0.000000  -0.000000
 Sum of Mulliken charges =  -0.00000  -0.00000

 Dipole moment (field-independent basis, Debye):
    X=             -0.0000    Y=             -0.0000    Z=             -0.0000  Tot=              0.0000
 Quadrupole moment (field-independent basis, Debye-Ang):
   XX=            -12.4040   YY=            -12.4040   ZZ=            -10.6220
   XY=              0.0000   XZ=             -0.0000   YZ=              0.0000

 Optimization completed.
    -- Stationary point found.
 Normal termination of Gaussian 16 at Wed Feb 26 13:55:48 2025.
