 Gaussian 16, Revision A.03,
 Gaussian 16:  ES64L-G16RevA.03 25-Dec-2016

 ---------------------------------------------------
 #p UM062X/6-311+G** force int=superfine pop=saveNBO
 ---------------------------------------------------

 -------------------
 Title Card Required
 -------------------
 Symbolic Z-matrix:
 Charge =  0 Multiplicity = 1

                         Standard orientation:
 ---------------------------------------------------------------------
 Center     Atomic      Atomic             Coordinates (Angstroms)
 Number     Number       Type             X           Y           Z
 ---------------------------------------------------------------------
      1          8           0        0.000000    0.000000    0.618562
      2          8           0        0.000000    0.000000   -0.618562
 ---------------------------------------------------------------------

 SCF Done:  E(UM062X) =  -150.245260504     A.U. after    9 cycles

 Unable to determine electronic state:  an orbital has unidentified symmetry.
 Alpha  occ. eigenvalues --  -19.79734 -19.79684  -1.40644  -0.93255  -0.62209
 Alpha  occ. eigenvalues --   -0.61572  -0.58888  -0.36073
 Alpha virt. eigenvalues --   -0.13707   0.10374   0.10798   0.14251   0.15083
 Alpha virt. eigenvalues --    0.20649   0.21838   0.22173   0.29315   0.35228
 Alpha virt. eigenvalues --    0.98700   0.99870   1.00060   1.00839   1.06508

  Beta  occ. eigenvalues --  -19.79734 -19.79684  -1.40644  -0.93255  -0.62209
  Beta  occ. eigenvalues --   -0.61572  -0.58888  -0.36073
  Beta virt. eigenvalues --   -0.13707   0.10374   0.10798   0.14251   0.15083
  Beta virt. eigenvalues --    0.20649   0.21838   0.22173   0.29315   0.35228
  Beta virt. eigenvalues --    0.98700   0.99870   1.00060   1.00839   1.06508

 Mulliken charges and spin densities:
               1          2
     1  O    0.000000  -0.000000
     2  O    0.000000  -0.000000
 Sum of Mulliken charges =   0.00000  -0.00000

 Dipole moment (field-independent basis, Debye):
    X=              0.0000    Y=              0.0000    Z=             -0.0000  Tot=              0.0000
 Quadrupole moment (field-independent basis, Debye-Ang):
   XX=            -11.1301   YY=             -9.2894   ZZ=            -10.8175
   XY=              0.0000   XZ=              0.0000   YZ=             -0.0000

 Summary of Natural Population Analysis:

                                       Natural Population
                Natural  -----------------------------------------------
    Atom  No    Charge         Core      Valence    Rydberg      Total
 -----------------------------------------------------------------------
      O    1    0.00000      0.99996     2.98457    0.01547     4.00000
      O    2    0.00000      0.99996     2.98457    0.01547     4.00000
 =======================================================================
   * Total *    0.00000      1.99992     5.96914    0.03094     8.00000

 Normal termination of Gaussian 16 at Mon Apr 21 19:48:02 2025.
