 Gaussian 16, Revision A.03,
 Gaussian 16:  ES64L-G16RevA.03 25-Dec-2016

 --------------------------------------------
 #p opt UM062X/6-311+G** nosymm int=superfine
 --------------------------------------------

 -------------------
 Title Card Required
 -------------------
 Symbolic Z-matrix:
 Charge =  0 Multiplicity = 1

 SCF Done:  E(UM062X) =  -77.1730350133     A.U. after    9 cycles
 SCF Done:  E(UM062X) =  -77.2191555684     A.U. after   10 cycles
 SCF Done:  E(UM062X) =  -77.2222554910     A.U. after    8 cycles
 SCF Done:  E(UM062X) =  -77.2222629636     A.U. after    7 cycles
 Optimization completed.
    -- Stationary point found.

                          Input orientation:
 ---------------------------------------------------------------------
 Center     Atomic      Atomic             Coordinates (Angstroms)
 Number     Number       Type             X           Y           Z
 ---------------------------------------------------------------------
      1          6           0       -0.508738    0.000000    0.000000
      2          6           0        0.508738    0.000000    0.000000
      3          1           0       -1.569559    0.000000    0.000000
      4          1           0        1.569558    0.000000    0.000000
 ---------------------------------------------------------------------

 Alpha  occ. eigenvalues --  -10.49835 -10.48668  -0.88844  -0.62058  -0.56631
 Alpha  occ. eigenvalues --   -0.39462  -0.39462
 Alpha virt. eigenvalues --    0.02792   0.03288   0.06956   0.06956   0.07253
 Alpha virt. eigenvalues --    0.07253   0.09424   0.16698   0.19246   0.19246
 Alpha virt. eigenvalues --    0.21630   0.24927   0.44087   0.44942   0.54536

  Beta  occ. eigenvalues --  -10.49835 -10.48668  -0.88844  -0.62058  -0.56631
  Beta  occ. eigenvalues --   -0.39462  -0.39462
  Beta virt. eigenvalues --    0.02792   0.03288   0.06956   0.06956   0.07253
  Beta virt. eigenvalues --    0.07253   0.09424   0.16698   0.19246   0.19246
  Beta virt. eigenvalues --    0.21630   0.24927   0.44087   0.44942   0.54536

 Mulliken charges and spin densities:
               1          2
     1  C   -0.137617  -0.000000
     2  C   -0.137616   0.000000
     3  H    0.137617  -0.000000
     4  H    0.137617   0.000000
 Sum of Mulliken charges =  -0.00000  -0.00000

 Dipole moment (field-independent basis, Debye):
    X=             -0.0000    Y=              0.0000    Z=              0.0000  Tot=              0.0000
 Quadrupole moment (field-independent basis, Debye-Ang):
   XX=             -7.4343   YY=            -12.8603   ZZ=            -12.8603
   XY=              0.0000   XZ=              0.0000   YZ=              0.0000

 Normal termination of Gaussian 16 at Tue Dec  3 19:59:48 2024.
