 Gaussian 16, Revision A.03,
 Gaussian 16:  ES64L-G16RevA.03 25-Dec-2016

 ---------------------------------------------------
 #p UM062X/6-311+G** force int=superfine pop=saveNBO
 ---------------------------------------------------

 -------------------
 Title Card Required
 -------------------
 Symbolic Z-matrix:
 Charge =  0 Multiplicity = 1

                         Standard orientation:
 ---------------------------------------------------------------------
 Center     Atomic      Atomic             Coordinates (Angstroms)
 Number     Number       Type             X           Y           Z
 ---------------------------------------------------------------------
      1          6           0        0.000000    0.000000   -1.729885
      2         16           0        0.000000    0.000000    0.648707
 ---------------------------------------------------------------------

 SCF Done:  E(UM062X) =  -435.974531586     A.U. after   13 cycles

 The electronic state is 1-SG.
 Alpha  occ. eigenvalues --  -89.95340 -10.79747  -8.31020  -6.23055  -6.22674
 Alpha  occ. eigenvalues --   -6.22674  -0.77631  -0.67212  -0.36844  -0.32652
 Alpha  occ. eigenvalues --   -0.32652
 Alpha virt. eigenvalues --   -0.15170  -0.15170  -0.08012   0.03664   0.05405
 Alpha virt. eigenvalues --    0.05999   0.05999   0.08666   0.09253   0.09253
 Alpha virt. eigenvalues --    0.15590   0.34316   0.35750   0.35750   0.53237

  Beta  occ. eigenvalues --  -89.95340 -10.79747  -8.31020  -6.23055  -6.22674
  Beta  occ. eigenvalues --   -6.22674  -0.77631  -0.67212  -0.36844  -0.32652
  Beta  occ. eigenvalues --   -0.32652
  Beta virt. eigenvalues --   -0.15170  -0.15170  -0.08012   0.03664   0.05405
  Beta virt. eigenvalues --    0.05999   0.05999   0.08666   0.09253   0.09253
  Beta virt. eigenvalues --    0.15590   0.34316   0.35750   0.35750   0.53237

 Mulliken charges and spin densities:
               1          2
     1  C    0.140539   0.000000
     2  S   -0.140539  -0.000000
 Sum of Mulliken charges =   0.00000  -0.00000

 Dipole moment (field-independent basis, Debye):
    X=              0.0000    Y=              0.0000    Z=             -1.3967  Tot=              1.3967
 Quadrupole moment (field-independent basis, Debye-Ang):
   XX=            -20.4323   YY=            -20.4323   ZZ=            -17.0719
   XY=              0.0000   XZ=              0.0000   YZ=              0.0000

 Summary of Natural Population Analysis:

                                       Natural Population
                Natural  -----------------------------------------------
    Atom  No    Charge         Core      Valence    Rydberg      Total
 -----------------------------------------------------------------------
      C    1    0.11856      0.99999     1.87907    0.00238     2.88144
      S    2   -0.11856      4.99998     3.11614    0.00244     8.11856
 =======================================================================
   * Total *    0.00000      5.99997     4.99521    0.00482    11.00000

 Normal termination of Gaussian 16 at Mon Apr 21 19:45:43 2025.
