 Gaussian 16, Revision A.03,
 Gaussian 16:  ES64L-G16RevA.03 25-Dec-2016

 --------------------------------------------
 #p opt UM062X/6-311+G** nosymm int=superfine
 --------------------------------------------

 -------------------
 Title Card Required
 -------------------
 Symbolic Z-matrix:
 Charge =  0 Multiplicity = 1

 SCF Done:  E(UM062X) =  -83.1449630219     A.U. after   10 cycles
 SCF Done:  E(UM062X) =  -83.1559033734     A.U. after    9 cycles
 SCF Done:  E(UM062X) =  -83.1568287282     A.U. after    8 cycles
 SCF Done:  E(UM062X) =  -83.1568300749     A.U. after    7 cycles
 Optimization completed.
    -- Stationary point found.

                          Input orientation:
 ---------------------------------------------------------------------
 Center     Atomic      Atomic             Coordinates (Angstroms)
 Number     Number       Type             X           Y           Z
 ---------------------------------------------------------------------
      1          5           0       -1.277429    0.000000    0.000000
      2          7           0        1.277429    0.000000    0.000000
      3          1           0        1.631479   -0.949145    0.000001
      4          1           0       -1.351166   -0.593924    1.028677
      5          1           0        1.631349    0.474635   -0.822007
      6          1           0        1.631337    0.474633    0.822014
      7          1           0       -1.351172    1.187821    0.000014
      8          1           0       -1.351175   -0.593903   -1.028688
 ---------------------------------------------------------------------

 Alpha  occ. eigenvalues --  -14.75546  -7.02119  -0.98353  -0.56258  -0.56258
 Alpha  occ. eigenvalues --   -0.55725  -0.37892  -0.37892  -0.36866
 Alpha virt. eigenvalues --   -0.00037   0.02508   0.04801   0.04801   0.07498
 Alpha virt. eigenvalues --    0.08951   0.11070   0.11070   0.16820   0.16821
 Alpha virt. eigenvalues --    0.17907   0.20463   0.20463   0.23288   0.30009

  Beta  occ. eigenvalues --  -14.75546  -7.02119  -0.98353  -0.56258  -0.56258
  Beta  occ. eigenvalues --   -0.55725  -0.37892  -0.37892  -0.36866
  Beta virt. eigenvalues --   -0.00037   0.02508   0.04801   0.04801   0.07498
  Beta virt. eigenvalues --    0.08951   0.11070   0.11070   0.16820   0.16821
  Beta virt. eigenvalues --    0.17907   0.20463   0.20463   0.23288   0.30009

 Mulliken charges and spin densities:
               1          2
     1  B    0.010899  -0.000000
     2  N   -0.745259   0.000000
     3  H    0.265884  -0.000000
     4  H   -0.021098   0.000000
     5  H    0.265886  -0.000000
     6  H    0.265886  -0.000000
     7  H   -0.021100  -0.000000
     8  H   -0.021098  -0.000000
 Sum of Mulliken charges =  -0.00000  -0.00000

 Dipole moment (field-independent basis, Debye):
    X=              2.9596    Y=              0.0002    Z=              0.0000  Tot=              2.9596
 Quadrupole moment (field-independent basis, Debye-Ang):
   XX=            -13.0786   YY=            -15.8327   ZZ=            -15.8328
   XY=             -0.0000   XZ=             -0.0000   YZ=              0.0000

 Normal termination of Gaussian 16 at Mon Apr 21 17:37:23 2025.
