 Gaussian 16, Revision A.03,
 Gaussian 16:  ES64L-G16RevA.03 25-Dec-2016

 --------------------------------------------
 #p opt UM062X/6-311+G** nosymm int=superfine
 --------------------------------------------

 -------------------
 Title Card Required
 -------------------
 Symbolic Z-matrix:
 Charge =  0 Multiplicity = 1

 SCF Done:  E(UM062X) =  -581.856528437     A.U. after   10 cycles
 SCF Done:  E(UM062X) =  -582.088246561     A.U. after    9 cycles
 SCF Done:  E(UM062X) =  -582.359863485     A.U. after   10 cycles
 SCF Done:  E(UM062X) =  -582.479997032     A.U. after   10 cycles
 SCF Done:  E(UM062X) =  -582.511141719     A.U. after    8 cycles
 SCF Done:  E(UM062X) =  -582.525381663     A.U. after    8 cycles
 SCF Done:  E(UM062X) =  -582.526278463     A.U. after    8 cycles
 SCF Done:  E(UM062X) =  -582.526333001     A.U. after    7 cycles
 Optimization completed.
    -- Stationary point found.

                          Input orientation:
 ---------------------------------------------------------------------
 Center     Atomic      Atomic             Coordinates (Angstroms)
 Number     Number       Type             X           Y           Z
 ---------------------------------------------------------------------
      1         14           0       -1.169780   -0.000146    0.000085
      2         14           0        1.169858    0.000166   -0.000063
      3          1           0        1.682049   -1.203016    0.696215
      4          1           0       -1.681552   -1.204840   -0.693898
      5          1           0        1.681825    1.204914    0.693673
      6          1           0        1.681666   -0.001248   -1.390338
      7          1           0       -1.681977    1.203094   -0.696089
      8          1           0       -1.681781    0.001027    1.390284
 ---------------------------------------------------------------------

 Alpha  occ. eigenvalues --  -66.98810 -66.98810  -5.54084  -5.54076  -3.85232
 Alpha  occ. eigenvalues --   -3.85184  -3.85184  -3.85178  -3.85178  -3.85174
 Alpha  occ. eigenvalues --   -0.64468  -0.57751  -0.42203  -0.42202  -0.39569
 Alpha  occ. eigenvalues --   -0.39568  -0.34406
 Alpha virt. eigenvalues --    0.01371   0.01835   0.03299   0.03299   0.04286
 Alpha virt. eigenvalues --    0.05122   0.05122   0.05726   0.05726   0.07801
 Alpha virt. eigenvalues --    0.08849   0.08849   0.10694   0.15893   0.18254

  Beta  occ. eigenvalues --  -66.98810 -66.98810  -5.54084  -5.54076  -3.85232
  Beta  occ. eigenvalues --   -3.85184  -3.85184  -3.85178  -3.85178  -3.85174
  Beta  occ. eigenvalues --   -0.64468  -0.57751  -0.42203  -0.42202  -0.39569
  Beta  occ. eigenvalues --   -0.39568  -0.34406
  Beta virt. eigenvalues --    0.01371   0.01835   0.03299   0.03299   0.04286
  Beta virt. eigenvalues --    0.05122   0.05122   0.05726   0.05726   0.07801
  Beta virt. eigenvalues --    0.08849   0.08849   0.10694   0.15893   0.18254

 Mulliken charges and spin densities:
               1          2
     1  Si   0.300283  -0.000000
     2  Si   0.300283   0.000000
     3  H   -0.100094   0.000000
     4  H   -0.100096   0.000000
     5  H   -0.100094   0.000000
     6  H   -0.100095   0.000000
     7  H   -0.100094   0.000000
     8  H   -0.100093   0.000000
 Sum of Mulliken charges =  -0.00000   0.00000

 Dipole moment (field-independent basis, Debye):
    X=              0.0000    Y=              0.0001    Z=              0.0001  Tot=              0.0002
 Quadrupole moment (field-independent basis, Debye-Ang):
   XX=            -32.2865   YY=            -31.2875   ZZ=            -31.2875
   XY=             -0.0002   XZ=              0.0002   YZ=             -0.0000

 Normal termination of Gaussian 16 at Wed Apr 16 05:25:50 2025.
