 Gaussian 16, Revision A.03,
 Gaussian 16:  ES64L-G16RevA.03 25-Dec-2016

 -------------------------------------------------------------------
 #p opt UM062X/6-311+G** nosymm int=superfine SCF=NoVarAcc SCF=tight
 -------------------------------------------------------------------

 -------------------
 Title Card Required
 -------------------
 Symbolic Z-matrix:
 Charge =  1 Multiplicity = 2

 SCF Done:  E(UM062X) =  -79.3160419562     A.U. after   32 cycles
 SCF Done:  E(UM062X) =  -79.3161258732     A.U. after    9 cycles
 SCF Done:  E(UM062X) =  -79.3161508919     A.U. after    9 cycles
 SCF Done:  E(UM062X) =  -79.3161641090     A.U. after    9 cycles
 SCF Done:  E(UM062X) =  -79.3161649282     A.U. after    8 cycles
 Optimization completed.
    -- Stationary point found.

                          Input orientation:
 ---------------------------------------------------------------------
 Center     Atomic      Atomic             Coordinates (Angstroms)
 Number     Number       Type             X           Y           Z
 ---------------------------------------------------------------------
      1          6           0       -8.782675    0.000000    0.000000
      2          6           0        8.782675    0.000000    0.000000
      3          1           0        8.782400   -0.936692    0.542402
      4          1           0       -8.783319   -0.937675   -0.540707
      5          1           0        8.785495    0.938089    0.539976
      6          1           0        8.784247   -0.001396   -1.082400
      7          1           0       -8.785008    0.937126   -0.541636
      8          1           0       -8.783778    0.000416    1.082401
 ---------------------------------------------------------------------

 Alpha  occ. eigenvalues --  -10.78292 -10.78292  -0.97057  -0.97055  -0.68306
 Alpha  occ. eigenvalues --   -0.68305  -0.68304  -0.68303  -0.38382
 Alpha virt. eigenvalues --   -0.36750  -0.07982  -0.07981  -0.04496  -0.04495
 Alpha virt. eigenvalues --   -0.04495  -0.04495  -0.02411  -0.02411   0.04981
 Alpha virt. eigenvalues --    0.04982   0.04983   0.04984   0.05073   0.05074

  Beta  occ. eigenvalues --  -10.78049 -10.78049  -0.94388  -0.94388  -0.67731
  Beta  occ. eigenvalues --   -0.67730  -0.67730  -0.67729
  Beta virt. eigenvalues --   -0.23334  -0.23334  -0.08529  -0.08529  -0.04129
  Beta virt. eigenvalues --   -0.04129  -0.04129  -0.04129  -0.00457  -0.00457
  Beta virt. eigenvalues --    0.05277   0.05278   0.05279   0.05280   0.06527

 Mulliken charges and spin densities:
               1          2
     1  C   -0.190770   0.566905
     2  C   -0.190771   0.566905
     3  H    0.230255  -0.022301
     4  H    0.230253  -0.022302
     5  H    0.230260  -0.022301
     6  H    0.230257  -0.022302
     7  H    0.230263  -0.022301
     8  H    0.230255  -0.022302
 Sum of Mulliken charges =   1.00000   1.00000

 Dipole moment (field-independent basis, Debye):
    X=              0.0000    Y=             -0.0001    Z=              0.0000  Tot=              0.0001
 Quadrupole moment (field-independent basis, Debye-Ang):
   XX=            356.9128   YY=            -11.1279   ZZ=            -11.1283
   XY=              0.0018   XZ=             -0.0003   YZ=             -0.0003

 Normal termination of Gaussian 16 at Tue Dec  3 16:16:49 2024.
