 Gaussian 16, Revision A.03,
 Gaussian 16:  ES64L-G16RevA.03 25-Dec-2016

 --------------------------------------------
 #p opt UM062X/6-311+G** nosymm int=superfine
 --------------------------------------------

 -------------------
 Title Card Required
 -------------------
 Symbolic Z-matrix:
 Charge =  1 Multiplicity = 2

 SCF Done:  E(UM062X) =  -92.6284630485     A.U. after   20 cycles
 SCF Done:  E(UM062X) =  -92.6288688691     A.U. after   13 cycles
 SCF Done:  E(UM062X) =  -92.6288698985     A.U. after   11 cycles
 Optimization completed.
    -- Stationary point found.

                          Input orientation:
 ---------------------------------------------------------------------
 Center     Atomic      Atomic             Coordinates (Angstroms)
 Number     Number       Type             X           Y           Z
 ---------------------------------------------------------------------
      1          6           0       -1.026539    0.000000    0.000000
      2          7           0        1.026539    0.000000    0.000000
      3          1           0       -2.147528    0.000000    0.000000
 ---------------------------------------------------------------------

 Alpha  occ. eigenvalues --  -15.22564 -11.08931  -1.18339  -1.07105  -0.76737
 Alpha  occ. eigenvalues --   -0.71116  -0.62598
 Alpha virt. eigenvalues --   -0.43931  -0.43128  -0.39344  -0.16242  -0.11539
 Alpha virt. eigenvalues --   -0.10324  -0.09821  -0.05546  -0.02052  -0.01521
 Alpha virt. eigenvalues --    0.00728   0.07882   0.23464   0.29406   0.29427

  Beta  occ. eigenvalues --  -15.21412 -11.08947  -1.12229  -1.05567  -0.75913
  Beta  occ. eigenvalues --   -0.61814
  Beta virt. eigenvalues --   -0.43927  -0.42464  -0.35697  -0.34547  -0.16519
  Beta virt. eigenvalues --   -0.11929  -0.10235  -0.10117  -0.05939  -0.02165
  Beta virt. eigenvalues --   -0.01888   0.00762   0.06255   0.23507   0.29147

 Mulliken charges and spin densities:
               1          2
     1  C    0.256050   0.122758
     2  N    0.399987   0.900147
     3  H    0.343963  -0.022905
 Sum of Mulliken charges =   1.00000   1.00000

 Dipole moment (field-independent basis, Debye):
    X=             -4.2507    Y=              0.0000    Z=             -0.0000  Tot=              4.2507
 Quadrupole moment (field-independent basis, Debye-Ang):
   XX=              2.0768   YY=            -10.2783   ZZ=            -10.5299
   XY=             -0.0000   XZ=              0.0000   YZ=              1.0144

 Normal termination of Gaussian 16 at Mon Apr 21 18:34:25 2025.
