 Gaussian 16, Revision A.03,
 Gaussian 16:  ES64L-G16RevA.03 25-Dec-2016

 ---------------------------------------
 #p UM062X/6-311+G** force int=superfine
 ---------------------------------------

 -------------------
 Title Card Required
 -------------------
 Symbolic Z-matrix:
 Charge =  1 Multiplicity = 2

                         Standard orientation:
 ---------------------------------------------------------------------
 Center     Atomic      Atomic             Coordinates (Angstroms)
 Number     Number       Type             X           Y           Z
 ---------------------------------------------------------------------
      1          6           0        0.044002    0.266987   -1.661585
      2          6           0       -0.044009   -0.266981    1.661585
      3          1           0       -0.731131   -1.097968    1.550073
      4          1           0        0.427759   -0.729115   -1.850320
      5          1           0       -0.427563    0.729049    1.851114
      6          1           0        1.023681   -0.450598    1.699294
      7          1           0        0.730976    1.098100   -1.550099
      8          1           0       -1.023679    0.450498   -1.700065
 ---------------------------------------------------------------------

 SCF Done:  E(UM062X) =  -79.3294309691     A.U. after   10 cycles

 The electronic state is 2-A.
 Alpha  occ. eigenvalues --  -10.84566 -10.84564  -1.03245  -1.02381  -0.74101
 Alpha  occ. eigenvalues --   -0.74101  -0.73721  -0.73720  -0.50523
 Alpha virt. eigenvalues --   -0.36545  -0.13516  -0.10210  -0.10037  -0.10036
 Alpha virt. eigenvalues --   -0.06246  -0.06246  -0.04788  -0.03260  -0.01320
 Alpha virt. eigenvalues --   -0.01318   0.01275   0.01276   0.04088   0.07942

  Beta  occ. eigenvalues --  -10.84361 -10.84361  -1.00509  -0.99934  -0.73592
  Beta  occ. eigenvalues --   -0.73591  -0.73206  -0.73206
  Beta virt. eigenvalues --   -0.32656  -0.26201  -0.15578  -0.11141  -0.11140
  Beta virt. eigenvalues --   -0.10087  -0.06345  -0.06344  -0.05128  -0.02347
  Beta virt. eigenvalues --   -0.01666  -0.01663   0.01566   0.01568   0.04742

 Mulliken charges and spin densities:
               1          2
     1  C   -0.267000   0.562472
     2  C   -0.267001   0.562472
     3  H    0.255688  -0.020819
     4  H    0.255648  -0.020821
     5  H    0.255672  -0.020820
     6  H    0.255640  -0.020833
     7  H    0.255689  -0.020819
     8  H    0.255663  -0.020832
 Sum of Mulliken charges =   1.00000   1.00000

 Dipole moment (field-independent basis, Debye):
    X=              0.0001    Y=             -0.0000    Z=             -0.0000  Tot=              0.0001
 Quadrupole moment (field-independent basis, Debye-Ang):
   XX=            -11.0619   YY=            -10.7289   ZZ=              2.1651
   XY=              0.0566   XZ=             -0.3515   YZ=             -2.1281

 Normal termination of Gaussian 16 at Wed Nov 13 13:03:20 2024.
