 Gaussian 16, Revision A.03,
 Gaussian 16:  ES64L-G16RevA.03 25-Dec-2016

 ---------------------------------------------------
 #p UM062X/6-311+G** force int=superfine pop=saveNBO
 ---------------------------------------------------

 -------------------
 Title Card Required
 -------------------
 Symbolic Z-matrix:
 Charge =  0 Multiplicity = 1

                         Standard orientation:
 ---------------------------------------------------------------------
 Center     Atomic      Atomic             Coordinates (Angstroms)
 Number     Number       Type             X           Y           Z
 ---------------------------------------------------------------------
      1          6           0        0.000000    0.000000   -1.126951
      2          8           0        0.000000    0.000000    0.845213
 ---------------------------------------------------------------------

 SCF Done:  E(UM062X) =  -112.926405146     A.U. after   15 cycles

 The electronic state is 1-SG.
 Alpha  occ. eigenvalues --  -19.71332 -10.84242  -1.02217  -0.71242  -0.41247
 Alpha  occ. eigenvalues --   -0.38254  -0.38254
 Alpha virt. eigenvalues --   -0.16564  -0.16564  -0.06673   0.03318   0.06384
 Alpha virt. eigenvalues --    0.06384   0.07069   0.20044   0.22578   0.22578
 Alpha virt. eigenvalues --    0.32090   0.51804   0.51804   0.52928   0.68443

  Beta  occ. eigenvalues --  -19.71332 -10.84242  -1.02217  -0.71242  -0.41247
  Beta  occ. eigenvalues --   -0.38254  -0.38254
  Beta virt. eigenvalues --   -0.16564  -0.16564  -0.06673   0.03318   0.06384
  Beta virt. eigenvalues --    0.06384   0.07069   0.20044   0.22578   0.22578
  Beta virt. eigenvalues --    0.32090   0.51804   0.51804   0.52928   0.68443

 Mulliken charges and spin densities:
               1          2
     1  C    0.330567   0.000000
     2  O   -0.330567  -0.000000
 Sum of Mulliken charges =   0.00000   0.00000

 Dipole moment (field-independent basis, Debye):
    X=              0.0000    Y=              0.0000    Z=             -3.2266  Tot=              3.2266
 Quadrupole moment (field-independent basis, Debye-Ang):
   XX=            -11.5462   YY=            -11.5462   ZZ=            -10.9854
   XY=              0.0000   XZ=              0.0000   YZ=              0.0000

 Summary of Natural Population Analysis:

                                       Natural Population
                Natural  -----------------------------------------------
    Atom  No    Charge         Core      Valence    Rydberg      Total
 -----------------------------------------------------------------------
      C    1    0.30337      0.99999     1.69439    0.00225     2.69663
      O    2   -0.30337      1.00000     3.30151    0.00186     4.30337
 =======================================================================
   * Total *    0.00000      1.99999     4.99590    0.00411     7.00000

 Normal termination of Gaussian 16 at Mon Apr 21 19:31:30 2025.
