 Gaussian 16, Revision A.03,
 Gaussian 16:  ES64L-G16RevA.03 25-Dec-2016

 --------------------------------------------
 #p opt UM062X/6-311+G** nosymm int=superfine
 --------------------------------------------

 -------------------
 Title Card Required
 -------------------
 Symbolic Z-matrix:
 Charge =  0 Multiplicity = 1

 SCF Done:  E(UM062X) =  -93.2920353074     A.U. after   10 cycles
 SCF Done:  E(UM062X) =  -93.2921225451     A.U. after    9 cycles
 SCF Done:  E(UM062X) =  -93.2921228229     A.U. after    6 cycles
 Optimization completed.
    -- Stationary point found.

                          Input orientation:
 ---------------------------------------------------------------------
 Center     Atomic      Atomic             Coordinates (Angstroms)
 Number     Number       Type             X           Y           Z
 ---------------------------------------------------------------------
      1          6           0       -0.722395    0.000000    0.000000
      2          7           0        0.722395    0.000000    0.000000
      3          1           0       -1.801209   -0.000000   -0.000000
 ---------------------------------------------------------------------

 Alpha  occ. eigenvalues --  -14.85447 -10.67246  -0.93772  -0.71821  -0.47790
 Alpha  occ. eigenvalues --   -0.37990  -0.37990
 Alpha virt. eigenvalues --   -0.03941  -0.03941   0.01514   0.02964   0.07049
 Alpha virt. eigenvalues --    0.07049   0.11934   0.15772   0.17936   0.17936
 Alpha virt. eigenvalues --    0.25086   0.32569   0.55842   0.55842   0.58836

  Beta  occ. eigenvalues --  -14.85447 -10.67246  -0.93772  -0.71821  -0.47790
  Beta  occ. eigenvalues --   -0.37990  -0.37990
  Beta virt. eigenvalues --   -0.03941  -0.03941   0.01514   0.02964   0.07049
  Beta virt. eigenvalues --    0.07049   0.11934   0.15772   0.17936   0.17936
  Beta virt. eigenvalues --    0.25086   0.32569   0.55842   0.55842   0.58836

 Mulliken charges and spin densities:
               1          2
     1  C   -0.117634   0.000000
     2  N   -0.115385  -0.000000
     3  H    0.233019   0.000000
 Sum of Mulliken charges =  -0.00000  -0.00000

 Dipole moment (field-independent basis, Debye):
    X=             -3.0961    Y=              0.0000    Z=              0.0000  Tot=              3.0961
 Quadrupole moment (field-independent basis, Debye-Ang):
   XX=             -8.7679   YY=            -12.8947   ZZ=            -12.8947
   XY=             -0.0000   XZ=             -0.0000   YZ=             -0.0000

 Normal termination of Gaussian 16 at Mon Apr 21 18:38:24 2025.
