 Gaussian 16, Revision A.03,
 Gaussian 16:  ES64L-G16RevA.03 25-Dec-2016

 ---------------------------------------
 #p UM062X/6-311+G** force int=superfine
 ---------------------------------------

 -------------------
 Title Card Required
 -------------------
 Symbolic Z-matrix:
 Charge =  0 Multiplicity = 1

                         Standard orientation:
 ---------------------------------------------------------------------
 Center     Atomic      Atomic             Coordinates (Angstroms)
 Number     Number       Type             X           Y           Z
 ---------------------------------------------------------------------
      1          6           0       -0.000000    0.768932    0.000000
      2          6           0       -0.000000   -0.768932    0.000000
      3          1           0       -0.940791    1.301113    0.000000
      4          1           0        0.940741    1.301220    0.000000
      5          1           0        0.940791   -1.301113    0.000000
      6          1           0       -0.940741   -1.301220    0.000000
 ---------------------------------------------------------------------

 SCF Done:  E(UM062X) =  -78.5277578907     A.U. after    8 cycles

 The electronic state is 1-AG.
 Alpha  occ. eigenvalues --  -10.56910 -10.56867  -0.82050  -0.68196  -0.53367
 Alpha  occ. eigenvalues --   -0.45310  -0.45073  -0.30371
 Alpha virt. eigenvalues --   -0.00669   0.03385   0.03828   0.05305   0.07869
 Alpha virt. eigenvalues --    0.08245   0.09719   0.12257   0.15898   0.16977
 Alpha virt. eigenvalues --    0.20610   0.21599   0.28851   0.30019   0.42210

  Beta  occ. eigenvalues --  -10.56910 -10.56867  -0.82050  -0.68196  -0.53367
  Beta  occ. eigenvalues --   -0.45310  -0.45073  -0.30371
  Beta virt. eigenvalues --   -0.00669   0.03385   0.03828   0.05305   0.07869
  Beta virt. eigenvalues --    0.08245   0.09719   0.12257   0.15898   0.16977
  Beta virt. eigenvalues --    0.20610   0.21599   0.28851   0.30019   0.42210

 Mulliken charges and spin densities:
               1          2
     1  C   -0.320091  -0.000000
     2  C   -0.320091  -0.000000
     3  H    0.160043   0.000000
     4  H    0.160049   0.000000
     5  H    0.160043   0.000000
     6  H    0.160049   0.000000
 Sum of Mulliken charges =  -0.00000  -0.00000

 Dipole moment (field-independent basis, Debye):
    X=             -0.0000    Y=             -0.0000    Z=              0.0000  Tot=              0.0000
 Quadrupole moment (field-independent basis, Debye-Ang):
   XX=            -12.2626   YY=            -12.0139   ZZ=            -16.7573
   XY=              0.0002   XZ=              0.0000   YZ=              0.0000

 Normal termination of Gaussian 16 at Tue Nov 19 11:45:53 2024.
