 Gaussian 16, Revision A.03,
 Gaussian 16:  ES64L-G16RevA.03 25-Dec-2016

 --------------------------------------------
 #p opt UM062X/6-311+G** nosymm int=superfine
 --------------------------------------------

 -------------------
 Title Card Required
 -------------------
 Symbolic Z-matrix:
 Charge =  0 Multiplicity = 1

 SCF Done:  E(UM062X) =  -581.248913979     A.U. after   10 cycles
 SCF Done:  E(UM062X) =  -581.249044572     A.U. after    7 cycles
 SCF Done:  E(UM062X) =  -581.249061924     A.U. after    9 cycles
 SCF Done:  E(UM062X) =  -581.248867751     A.U. after    9 cycles
 SCF Done:  E(UM062X) =  -581.249028072     A.U. after    9 cycles
 SCF Done:  E(UM062X) =  -581.249071823     A.U. after    5 cycles
 SCF Done:  E(UM062X) =  -581.249082879     A.U. after    8 cycles
 SCF Done:  E(UM062X) =  -581.249082923     A.U. after    6 cycles
 SCF Done:  E(UM062X) =  -581.249610431     A.U. after   10 cycles
 SCF Done:  E(UM062X) =  -581.251087778     A.U. after   10 cycles
 SCF Done:  E(UM062X) =  -581.255599936     A.U. after   11 cycles
 SCF Done:  E(UM062X) =  -581.257853292     A.U. after   11 cycles
 SCF Done:  E(UM062X) =  -581.257872696     A.U. after    9 cycles
 SCF Done:  E(UM062X) =  -581.257885982     A.U. after    9 cycles
 SCF Done:  E(UM062X) =  -581.257886158     A.U. after    7 cycles
 SCF Done:  E(UM062X) =  -581.257886283     A.U. after    7 cycles
 Optimization completed.
    -- Stationary point found.

                          Input orientation:
 ---------------------------------------------------------------------
 Center     Atomic      Atomic             Coordinates (Angstroms)
 Number     Number       Type             X           Y           Z
 ---------------------------------------------------------------------
      1         14           0       -1.212518    0.000000    0.000000
      2         14           0        1.212518    0.000000    0.000000
      3          1           0       -1.832398   -1.200245    0.617688
      4          1           0        1.834139    1.199943   -0.616560
      5          1           0       -1.832609    1.200568    0.616863
      6          1           0        1.833837   -1.200345   -0.616038
 ---------------------------------------------------------------------

 Alpha  occ. eigenvalues --  -67.01418 -67.01412  -5.56252  -5.56245  -3.87500
 Alpha  occ. eigenvalues --   -3.87485  -3.87184  -3.87176  -3.87138  -3.87121
 Alpha  occ. eigenvalues --   -0.62062  -0.56205  -0.42434  -0.40451  -0.35646
 Alpha  occ. eigenvalues --   -0.25237
 Alpha virt. eigenvalues --   -0.08226   0.00663   0.02306   0.03314   0.04358
 Alpha virt. eigenvalues --    0.04746   0.04971   0.05766   0.06824   0.07064
 Alpha virt. eigenvalues --    0.08611   0.10796   0.12122   0.12501   0.25260

  Beta  occ. eigenvalues --  -67.01418 -67.01412  -5.56252  -5.56245  -3.87500
  Beta  occ. eigenvalues --   -3.87485  -3.87184  -3.87176  -3.87138  -3.87121
  Beta  occ. eigenvalues --   -0.62062  -0.56205  -0.42434  -0.40451  -0.35646
  Beta  occ. eigenvalues --   -0.25237
  Beta virt. eigenvalues --   -0.08226   0.00663   0.02306   0.03314   0.04358
  Beta virt. eigenvalues --    0.04746   0.04971   0.05766   0.06824   0.07064
  Beta virt. eigenvalues --    0.08611   0.10796   0.12122   0.12501   0.25260

 Mulliken charges and spin densities:
               1          2
     1  Si   0.168628  -0.000000
     2  Si   0.169014   0.000000
     3  H   -0.084394  -0.000000
     4  H   -0.084426  -0.000000
     5  H   -0.084397  -0.000000
     6  H   -0.084425  -0.000000
 Sum of Mulliken charges =  -0.00000  -0.00000

 Dipole moment (field-independent basis, Debye):
    X=              0.0018    Y=              0.0001    Z=              0.0005  Tot=              0.0019
 Quadrupole moment (field-independent basis, Debye-Ang):
   XX=            -27.1746   YY=            -30.1238   ZZ=            -32.3999
   XY=              0.0003   XZ=              0.9405   YZ=             -0.0007

 Normal termination of Gaussian 16 at Mon Apr 21 20:31:42 2025.
