 Gaussian 16, Revision A.03,
 Gaussian 16:  ES64L-G16RevA.03 25-Dec-2016

 --------------------------------------------
 #p opt UM062X/6-311+G** nosymm int=superfine
 --------------------------------------------

 -------------------
 Title Card Required
 -------------------
 Symbolic Z-matrix:
 Charge =  0 Multiplicity = 1

 SCF Done:  E(UM062X) =  -581.242113097     A.U. after   10 cycles
 SCF Done:  E(UM062X) =  -581.242281232     A.U. after    7 cycles
 SCF Done:  E(UM062X) =  -581.242315260     A.U. after    9 cycles
 SCF Done:  E(UM062X) =  -581.242119651     A.U. after    9 cycles
 SCF Done:  E(UM062X) =  -581.242301107     A.U. after    9 cycles
 SCF Done:  E(UM062X) =  -581.242324703     A.U. after    9 cycles
 SCF Done:  E(UM062X) =  -581.242331088     A.U. after    8 cycles
 Optimization completed.
    -- Stationary point found.

                          Input orientation:
 ---------------------------------------------------------------------
 Center     Atomic      Atomic             Coordinates (Angstroms)
 Number     Number       Type             X           Y           Z
 ---------------------------------------------------------------------
      1         14           0       -1.237518    0.000000    0.000000
      2         14           0        1.237518    0.000000    0.000000
      3          1           0       -1.991234   -1.262948    0.000570
      4          1           0        1.991234    1.262948   -0.000518
      5          1           0       -1.991332    1.262889   -0.000058
      6          1           0        1.991331   -1.262890    0.000542
 ---------------------------------------------------------------------

 Alpha  occ. eigenvalues --  -67.02158 -67.02158  -5.56894  -5.56890  -3.88122
 Alpha  occ. eigenvalues --   -3.88118  -3.87947  -3.87920  -3.87905  -3.87902
 Alpha  occ. eigenvalues --   -0.62025  -0.56994  -0.43903  -0.42376  -0.35950
 Alpha  occ. eigenvalues --   -0.22895
 Alpha virt. eigenvalues --   -0.06116  -0.00883   0.02223   0.03251   0.04001
 Alpha virt. eigenvalues --    0.04439   0.04853   0.05131   0.05639   0.07142
 Alpha virt. eigenvalues --    0.07490   0.08322   0.12447   0.22721   0.25083

  Beta  occ. eigenvalues --  -67.02158 -67.02158  -5.56894  -5.56890  -3.88122
  Beta  occ. eigenvalues --   -3.88118  -3.87947  -3.87920  -3.87905  -3.87902
  Beta  occ. eigenvalues --   -0.62025  -0.56994  -0.43903  -0.42376  -0.35950
  Beta  occ. eigenvalues --   -0.22895
  Beta virt. eigenvalues --   -0.06116  -0.00883   0.02223   0.03251   0.04001
  Beta virt. eigenvalues --    0.04439   0.04853   0.05131   0.05639   0.07142
  Beta virt. eigenvalues --    0.07490   0.08322   0.12447   0.22721   0.25083

 Mulliken charges and spin densities:
               1          2
     1  Si   0.119102  -0.000000
     2  Si   0.119102   0.000000
     3  H   -0.059554   0.000000
     4  H   -0.059554  -0.000000
     5  H   -0.059548   0.000000
     6  H   -0.059548   0.000000
 Sum of Mulliken charges =  -0.00000   0.00000

 Dipole moment (field-independent basis, Debye):
    X=              0.0000    Y=              0.0000    Z=             -0.0000  Tot=              0.0000
 Quadrupole moment (field-independent basis, Debye-Ang):
   XX=            -26.9922   YY=            -29.3593   ZZ=            -33.4263
   XY=             -0.0003   XZ=             -0.0001   YZ=             -0.0014

 Normal termination of Gaussian 16 at Mon Apr 21 20:25:43 2025.
