 Gaussian 16, Revision A.03,
 Gaussian 16:  ES64L-G16RevA.03 25-Dec-2016

 --------------------------------------------
 #p opt UM062X/6-311+G** nosymm int=superfine
 --------------------------------------------

 -------------------
 Title Card Required
 -------------------
 Symbolic Z-matrix:
 Charge =  0 Multiplicity = 1

 SCF Done:  E(UM062X) =  -683.601425542     A.U. after   12 cycles
 SCF Done:  E(UM062X) =  -683.601846623     A.U. after   10 cycles
 SCF Done:  E(UM062X) =  -683.602387674     A.U. after   11 cycles
 SCF Done:  E(UM062X) =  -683.602428523     A.U. after   13 cycles
 Optimization completed.
    -- Stationary point found.

                          Input orientation:
 ---------------------------------------------------------------------
 Center     Atomic      Atomic             Coordinates (Angstroms)
 Number     Number       Type             X           Y           Z
 ---------------------------------------------------------------------
      1         15           0       -2.059490    0.000000    0.000000
      2         15           0        2.059490    0.000000    0.000000
      3          1           0       -1.932718   -1.417868   -0.000000
      4          1           0        1.932718    1.417868   -0.000000
 ---------------------------------------------------------------------

 Alpha  occ. eigenvalues --  -78.08471 -78.08471  -6.90497  -6.90496  -5.01907
 Alpha  occ. eigenvalues --   -5.01907  -5.01890  -5.01890  -5.01708  -5.01708
 Alpha  occ. eigenvalues --   -0.68717  -0.68022  -0.40586  -0.40428  -0.25928
 Alpha  occ. eigenvalues --   -0.24205
 Alpha virt. eigenvalues --   -0.16875  -0.15063   0.01947   0.03040   0.03713
 Alpha virt. eigenvalues --    0.04530   0.05558   0.05913   0.06449   0.07641
 Alpha virt. eigenvalues --    0.08489   0.11626   0.28211   0.29873   0.30325

  Beta  occ. eigenvalues --  -78.08471 -78.08471  -6.90497  -6.90496  -5.01907
  Beta  occ. eigenvalues --   -5.01907  -5.01890  -5.01890  -5.01708  -5.01708
  Beta  occ. eigenvalues --   -0.68717  -0.68022  -0.40586  -0.40428  -0.25928
  Beta  occ. eigenvalues --   -0.24205
  Beta virt. eigenvalues --   -0.16875  -0.15063   0.01947   0.03040   0.03713
  Beta virt. eigenvalues --    0.04530   0.05558   0.05913   0.06449   0.07641
  Beta virt. eigenvalues --    0.08489   0.11626   0.28211   0.29873   0.30325

 Mulliken charges and spin densities:
               1          2
     1  P    0.009122  -0.000000
     2  P    0.009122   0.000000
     3  H   -0.009122   0.000000
     4  H   -0.009122  -0.000000
 Sum of Mulliken charges =  -0.00000  -0.00000

 Dipole moment (field-independent basis, Debye):
    X=             -0.0000    Y=             -0.0000    Z=             -0.0000  Tot=              0.0000
 Quadrupole moment (field-independent basis, Debye-Ang):
   XX=            -26.7619   YY=            -28.4897   ZZ=            -30.8294
   XY=              3.2378   XZ=             -0.0000   YZ=             -0.0000

 Normal termination of Gaussian 16 at Mon Apr 21 21:14:00 2025.
