 Gaussian 16, Revision A.03,
 Gaussian 16:  ES64L-G16RevA.03 25-Dec-2016

 --------------------------------------------
 #p opt UM062X/6-311+G** nosymm int=superfine
 --------------------------------------------

 -------------------
 Title Card Required
 -------------------
 Symbolic Z-matrix:
 Charge =  0 Multiplicity = 1

 SCF Done:  E(UM062X) =  -79.7379997995     A.U. after    8 cycles
 SCF Done:  E(UM062X) =  -79.7550750176     A.U. after    8 cycles
 SCF Done:  E(UM062X) =  -79.7602513042     A.U. after    8 cycles
 SCF Done:  E(UM062X) =  -79.7602630306     A.U. after    7 cycles
 Optimization completed.
    -- Stationary point found.

                          Input orientation:
 ---------------------------------------------------------------------
 Center     Atomic      Atomic             Coordinates (Angstroms)
 Number     Number       Type             X           Y           Z
 ---------------------------------------------------------------------
      1          6           0       -0.946798    0.000000    0.000000
      2          6           0        0.946895    0.000000    0.000000
      3          1           0        1.262568   -0.899590    0.520561
      4          1           0       -1.262473   -0.900605   -0.518805
      5          1           0        1.262570    0.900605    0.518804
      6          1           0        1.262591   -0.001014   -1.039341
      7          1           0       -1.262471    0.899590   -0.520560
      8          1           0       -1.262496    0.001014    1.039340
 ---------------------------------------------------------------------

 Alpha  occ. eigenvalues --  -10.54059 -10.54047  -0.80022  -0.71968  -0.48638
 Alpha  occ. eigenvalues --   -0.48638  -0.43490  -0.43490  -0.35363
 Alpha virt. eigenvalues --    0.02283   0.03314   0.05639   0.05639   0.08565
 Alpha virt. eigenvalues --    0.08565   0.09332   0.13036   0.15405   0.18285
 Alpha virt. eigenvalues --    0.18285   0.21899   0.21899   0.24261   0.27289

  Beta  occ. eigenvalues --  -10.54059 -10.54047  -0.80022  -0.71968  -0.48638
  Beta  occ. eigenvalues --   -0.48638  -0.43490  -0.43490  -0.35363
  Beta virt. eigenvalues --    0.02283   0.03314   0.05639   0.05639   0.08565
  Beta virt. eigenvalues --    0.08565   0.09332   0.13036   0.15405   0.18285
  Beta virt. eigenvalues --    0.18285   0.21899   0.21899   0.24261   0.27289

 Mulliken charges and spin densities:
               1          2
     1  C   -0.492678   0.000000
     2  C   -0.492678  -0.000000
     3  H    0.164226   0.000000
     4  H    0.164226  -0.000000
     5  H    0.164226   0.000000
     6  H    0.164225   0.000000
     7  H    0.164226  -0.000000
     8  H    0.164225  -0.000000
 Sum of Mulliken charges =  -0.00000  -0.00000

 Dipole moment (field-independent basis, Debye):
    X=              0.0000    Y=              0.0000    Z=             -0.0000  Tot=              0.0000
 Quadrupole moment (field-independent basis, Debye-Ang):
   XX=            -15.6019   YY=            -14.9096   ZZ=            -14.9095
   XY=              0.0000   XZ=             -0.0000   YZ=             -0.0000

 Normal termination of Gaussian 16 at Tue Nov 19 12:02:31 2024.
