 Gaussian 16, Revision A.03,
 Gaussian 16:  ES64L-G16RevA.03 25-Dec-2016

 --------------------------------------------
 #p opt UM062X/6-311+G** nosymm int=superfine
 --------------------------------------------

 -------------------
 Title Card Required
 -------------------
 Symbolic Z-matrix:
 Charge =  0 Multiplicity = 1

 SCF Done:  E(UM062X) =  -77.0632660730     A.U. after   10 cycles
 SCF Done:  E(UM062X) =  -77.1366066101     A.U. after   10 cycles
 SCF Done:  E(UM062X) =  -77.1492264226     A.U. after    9 cycles
 SCF Done:  E(UM062X) =  -77.1493873878     A.U. after    7 cycles
 Optimization completed.
    -- Stationary point found.

                          Input orientation:
 ---------------------------------------------------------------------
 Center     Atomic      Atomic             Coordinates (Angstroms)
 Number     Number       Type             X           Y           Z
 ---------------------------------------------------------------------
      1          6           0       -0.484798    0.000000    0.000000
      2          6           0        0.484798    0.000000    0.000000
      3          1           0       -1.544548    0.000000   -0.000000
      4          1           0        1.544545   -0.000000    0.000000
 ---------------------------------------------------------------------

 Alpha  occ. eigenvalues --  -10.48870 -10.47118  -0.89369  -0.61269  -0.56424
 Alpha  occ. eigenvalues --   -0.40690  -0.40690
 Alpha virt. eigenvalues --    0.02838   0.03400   0.07150   0.07150   0.07375
 Alpha virt. eigenvalues --    0.07375   0.09497   0.16828   0.20713   0.20713
 Alpha virt. eigenvalues --    0.22079   0.25027   0.44011   0.46130   0.53838

  Beta  occ. eigenvalues --  -10.48870 -10.47118  -0.89369  -0.61269  -0.56424
  Beta  occ. eigenvalues --   -0.40690  -0.40690
  Beta virt. eigenvalues --    0.02838   0.03400   0.07150   0.07150   0.07375
  Beta virt. eigenvalues --    0.07375   0.09497   0.16828   0.20713   0.20713
  Beta virt. eigenvalues --    0.22079   0.25027   0.44011   0.46130   0.53838

 Mulliken charges and spin densities:
               1          2
     1  C   -0.127291   0.000000
     2  C   -0.127289  -0.000000
     3  H    0.127290   0.000000
     4  H    0.127289   0.000000
 Sum of Mulliken charges =  -0.00000   0.00000

 Dipole moment (field-independent basis, Debye):
    X=             -0.0000    Y=             -0.0000    Z=              0.0000  Tot=              0.0000
 Quadrupole moment (field-independent basis, Debye-Ang):
   XX=             -7.5657   YY=            -12.5920   ZZ=            -12.5920
   XY=             -0.0000   XZ=              0.0000   YZ=             -0.0000

 Normal termination of Gaussian 16 at Tue Dec  3 19:58:39 2024.
