 Gaussian 16, Revision A.03,
 Gaussian 16:  ES64L-G16RevA.03 25-Dec-2016

 ---------------------------------------------------------------------
 #p opt UM062X/6-311+G** nosymm int=superfine SCF=(Tight,MaxCycle=200)
 ---------------------------------------------------------------------

 -------------------
 Title Card Required
 -------------------
 Symbolic Z-matrix:
 Charge =  1 Multiplicity = 2

 SCF Done:  E(UM062X) =  -1613.43072954     A.U. after   36 cycles
 SCF Done:  E(UM062X) =  -1613.96090920     A.U. after   37 cycles
 SCF Done:  E(UM062X) =  -1614.65882379     A.U. after   28 cycles
 SCF Done:  E(UM062X) =  -1615.17086556     A.U. after   28 cycles
 SCF Done:  E(UM062X) =  -1615.24404555     A.U. after   29 cycles
 SCF Done:  E(UM062X) =  -1615.38128021     A.U. after   20 cycles
 SCF Done:  E(UM062X) =  -1615.50573510     A.U. after   23 cycles
 SCF Done:  E(UM062X) =  -1615.53429621     A.U. after   26 cycles
 SCF Done:  E(UM062X) =  -1615.53703545     A.U. after   23 cycles
 SCF Done:  E(UM062X) =  -1615.54436962     A.U. after   23 cycles
 SCF Done:  E(UM062X) =  -1615.55145064     A.U. after   20 cycles
 SCF Done:  E(UM062X) =  -1615.55159229     A.U. after   20 cycles
 SCF Done:  E(UM062X) =  -1615.55161659     A.U. after   19 cycles
 SCF Done:  E(UM062X) =  -1615.55163767     A.U. after   19 cycles
 SCF Done:  E(UM062X) =  -1615.55164702     A.U. after   19 cycles
 SCF Done:  E(UM062X) =  -1615.55165536     A.U. after   18 cycles
 SCF Done:  E(UM062X) =  -1615.55165817     A.U. after   18 cycles
 SCF Done:  E(UM062X) =  -1615.55165917     A.U. after   17 cycles
 SCF Done:  E(UM062X) =  -1615.55165944     A.U. after   12 cycles
 SCF Done:  E(UM062X) =  -1615.55165948     A.U. after   11 cycles
 Optimization completed.
    -- Stationary point found.

                          Input orientation:
 ---------------------------------------------------------------------
 Center     Atomic      Atomic             Coordinates (Angstroms)
 Number     Number       Type             X           Y           Z
 ---------------------------------------------------------------------
      1          6           0       -0.855750   -0.000000   -0.000000
      2          6           0        0.855750    0.000000   -0.000000
      3          6           0        0.000008   -2.198919    0.001552
      4          6           0       -0.000007   -3.557966    0.002449
      5          6           0       -1.108814   -4.325911    0.389788
      6          6           0       -1.127234   -1.467181    0.377587
      7          6           0        0.642172   -5.724129   -0.221526
      8          1           0        1.228825   -6.607702   -0.429331
      9          6           0       -1.382059    0.965622    1.055344
     10          6           0       -0.642360   -5.723819    0.228900
     11          1           0       -1.229083   -6.607105    0.437724
     12          6           0        1.108724   -4.326445   -0.384058
     13          6           0        1.127224   -1.467698   -0.375583
     14          6           0        1.595184    2.363382   -0.892803
     15          6           0       -1.363788    0.148501   -1.462140
     16          6           0       -1.889012    3.162832    2.030321
     17          1           0       -2.045247    4.224585    1.876962
     18          6           0       -2.231409   -3.620773    0.786223
     19          1           0       -3.135469   -4.128429    1.103732
     20          6           0       -1.476444    1.376053   -2.172051
     21          6           0        2.241639   -2.182198   -0.765520
     22          1           0        3.160128   -1.675810   -1.043206
     23          6           0        1.363816    0.150504    1.461924
     24          6           0        1.476324    1.379023    2.170195
     25          6           0        2.231283   -3.621855   -0.781557
     26          1           0        3.135266   -4.129948   -1.098587
     27          6           0       -1.595349    2.364539    0.889630
     28          6           0       -1.497585    0.464854    2.355512
     29          1           0       -1.313916   -0.584012    2.537441
     30          6           0        1.620703   -1.005839    2.217067
     31          1           0        1.597430   -1.981794    1.760848
     32          6           0       -1.987908    2.635674    3.295743
     33          1           0       -2.214301    3.269568    4.143713
     34          6           0       -2.241718   -2.181140    0.768325
     35          1           0       -3.160236   -1.674362    1.045202
     36          6           0       -1.727253    1.375056   -3.562667
     37          1           0       -1.776870    2.331584   -4.070163
     38          6           0        1.382024    0.964222   -1.056644
     39          6           0       -1.508353    3.111955   -0.327860
     40          1           0       -1.544497    4.188737   -0.191544
     41          6           0       -1.939938    0.213593   -4.272646
     42          1           0       -2.142190    0.241767   -5.335863
     43          6           0       -1.403734    2.697321   -1.614606
     44          1           0       -1.373039    3.492505   -2.353325
     45          6           0        1.727143    1.379925    3.560811
     46          1           0        1.776629    2.337139    4.067025
     47          6           0       -1.790094    1.264833    3.454908
     48          1           0       -1.851547    0.811185    4.437041
     49          6           0       -1.620501   -1.008891   -2.215737
     50          1           0       -1.597105   -1.984230   -1.758209
     51          6           0        1.940001    0.219442    4.272338
     52          1           0        2.142257    0.249063    5.335515
     53          6           0        1.888802    3.160181   -2.034551
     54          1           0        2.044928    4.222152   -1.882603
     55          6           0        1.909182   -0.981538    3.577057
     56          1           0        2.098577   -1.918126    4.087530
     57          6           0        1.987776    2.631341   -3.299263
     58          1           0        2.214129    3.264119   -4.148077
     59          6           0        1.508052    3.112425    0.323667
     60          1           0        1.544067    4.189026    0.185900
     61          6           0       -1.908956   -0.986454   -3.575762
     62          1           0       -2.098207   -1.923751   -4.084984
     63          6           0        1.403444    2.699521    1.610978
     64          1           0        1.372631    3.495701    2.348620
     65          6           0        1.497603    0.461736   -2.356143
     66          1           0        1.313999   -0.587378   -2.536691
     67          6           0        1.790070    1.260275   -3.456599
     68          1           0        1.851568    0.805323   -4.438126
 ---------------------------------------------------------------------

 Alpha  occ. eigenvalues --  -10.71185 -10.71166 -10.68777 -10.68776 -10.68669
 Alpha  occ. eigenvalues --  -10.68669 -10.68244 -10.68244 -10.67748 -10.67747
 Alpha  occ. eigenvalues --  -10.67460 -10.67459 -10.67437 -10.67436 -10.67018
 Alpha  occ. eigenvalues --  -10.67018 -10.66948 -10.66948 -10.66037 -10.66037
 Alpha  occ. eigenvalues --  -10.65919 -10.65919 -10.65779 -10.65779 -10.65732
 Alpha  occ. eigenvalues --  -10.65732 -10.65610 -10.65610 -10.65327 -10.65326
 Alpha  occ. eigenvalues --  -10.65206 -10.65206 -10.64951 -10.64951 -10.64928
 Alpha  occ. eigenvalues --  -10.64928 -10.64473 -10.64472 -10.63757 -10.63662
 Alpha  occ. eigenvalues --  -10.63356 -10.62076  -1.13186  -1.10363  -1.09704
 Alpha  occ. eigenvalues --   -1.08558  -1.07953  -1.06366  -1.03461  -1.03067
 Alpha  occ. eigenvalues --   -1.02566  -1.00638  -0.99161  -0.98006  -0.97967
 Alpha  occ. eigenvalues --   -0.96884  -0.96220  -0.94592  -0.93440  -0.93401
 Alpha  occ. eigenvalues --   -0.92241  -0.91674  -0.88409  -0.86165  -0.84964
 Alpha  occ. eigenvalues --   -0.84821  -0.82266  -0.81725  -0.80916  -0.80071
 Alpha  occ. eigenvalues --   -0.79699  -0.79468  -0.77982  -0.76208  -0.75923
 Alpha  occ. eigenvalues --   -0.75209  -0.74874  -0.73858  -0.70362  -0.70059
 Alpha  occ. eigenvalues --   -0.68716  -0.68026  -0.67619  -0.67596  -0.67292
 Alpha  occ. eigenvalues --   -0.66907  -0.65414  -0.64972  -0.64861  -0.64474
 Alpha  occ. eigenvalues --   -0.63850  -0.63023  -0.62307  -0.61764  -0.61543
 Alpha  occ. eigenvalues --   -0.61435  -0.60578  -0.60338  -0.59974  -0.59588
 Alpha  occ. eigenvalues --   -0.59431  -0.58733  -0.58058  -0.57726  -0.57631
 Alpha  occ. eigenvalues --   -0.56918  -0.56093  -0.56013  -0.55785  -0.55630
 Alpha  occ. eigenvalues --   -0.55368  -0.54540  -0.54437  -0.52977  -0.52905
 Alpha  occ. eigenvalues --   -0.52474  -0.52129  -0.51946  -0.51567  -0.51188
 Alpha  occ. eigenvalues --   -0.50748  -0.50383  -0.50251  -0.48788  -0.48690
 Alpha  occ. eigenvalues --   -0.48313  -0.47995  -0.47649  -0.44012  -0.43787
 Alpha  occ. eigenvalues --   -0.43467  -0.42617  -0.41461  -0.40830  -0.39511
 Alpha  occ. eigenvalues --   -0.38239  -0.37417  -0.36812  -0.36356
 Alpha virt. eigenvalues --   -0.16032  -0.15147  -0.14880  -0.11848  -0.10514
 Alpha virt. eigenvalues --   -0.09817  -0.08970  -0.08922  -0.08574  -0.07743
 Alpha virt. eigenvalues --   -0.07651  -0.07587  -0.07220  -0.06580  -0.06271

  Beta  occ. eigenvalues --  -10.71169 -10.71151 -10.68755 -10.68755 -10.68634
  Beta  occ. eigenvalues --  -10.68634 -10.68226 -10.68225 -10.67706 -10.67705
  Beta  occ. eigenvalues --  -10.67451 -10.67450 -10.67387 -10.67386 -10.66969
  Beta  occ. eigenvalues --  -10.66968 -10.66873 -10.66872 -10.66064 -10.66064
  Beta  occ. eigenvalues --  -10.65914 -10.65914 -10.65761 -10.65760 -10.65757
  Beta  occ. eigenvalues --  -10.65757 -10.65610 -10.65610 -10.65305 -10.65304
  Beta  occ. eigenvalues --  -10.65204 -10.65204 -10.64961 -10.64960 -10.64938
  Beta  occ. eigenvalues --  -10.64937 -10.64472 -10.64472 -10.63757 -10.63662
  Beta  occ. eigenvalues --  -10.63357 -10.62077  -1.13086  -1.10245  -1.09489
  Beta  occ. eigenvalues --   -1.08425  -1.07808  -1.06267  -1.03398  -1.02791
  Beta  occ. eigenvalues --   -1.02333  -1.00555  -0.99077  -0.97799  -0.97791
  Beta  occ. eigenvalues --   -0.96817  -0.96156  -0.94563  -0.93176  -0.93139
  Beta  occ. eigenvalues --   -0.92143  -0.91545  -0.88269  -0.86074  -0.84786
  Beta  occ. eigenvalues --   -0.84649  -0.82204  -0.81608  -0.80845  -0.79934
  Beta  occ. eigenvalues --   -0.79610  -0.79386  -0.77823  -0.76053  -0.75788
  Beta  occ. eigenvalues --   -0.75090  -0.74862  -0.73769  -0.70217  -0.69945
  Beta  occ. eigenvalues --   -0.68647  -0.67856  -0.67541  -0.67471  -0.67151
  Beta  occ. eigenvalues --   -0.66778  -0.65315  -0.64845  -0.64783  -0.64358
  Beta  occ. eigenvalues --   -0.63561  -0.62964  -0.62215  -0.61674  -0.61395
  Beta  occ. eigenvalues --   -0.61284  -0.60487  -0.60224  -0.59853  -0.59403
  Beta  occ. eigenvalues --   -0.59332  -0.58490  -0.58028  -0.57548  -0.57158
  Beta  occ. eigenvalues --   -0.56863  -0.55907  -0.55869  -0.55404  -0.55340
  Beta  occ. eigenvalues --   -0.54928  -0.54420  -0.54154  -0.52849  -0.52796
  Beta  occ. eigenvalues --   -0.52403  -0.51941  -0.51879  -0.51467  -0.51093
  Beta  occ. eigenvalues --   -0.50266  -0.50155  -0.49404  -0.48747  -0.48257
  Beta  occ. eigenvalues --   -0.48080  -0.47815  -0.47465  -0.43440  -0.43060
  Beta  occ. eigenvalues --   -0.42587  -0.42026  -0.41150  -0.40619  -0.39466
  Beta  occ. eigenvalues --   -0.37309  -0.36825  -0.36069
  Beta virt. eigenvalues --   -0.26863  -0.15665  -0.14782  -0.14376  -0.11604
  Beta virt. eigenvalues --   -0.10058  -0.09689  -0.08871  -0.08439  -0.08317
  Beta virt. eigenvalues --   -0.07624  -0.07513  -0.07423  -0.06902  -0.06577

 Mulliken charges and spin densities:
               1          2
     1  C    0.084464  -0.039368
     2  C    0.084511  -0.039406
     3  C    0.208261   0.001054
     4  C    0.094451   0.001118
     5  C    0.133376   0.001987
     6  C    0.101332   0.004315
     7  C   -0.301452   0.000054
     8  H    0.174535  -0.000010
     9  C    0.114108   0.074717
    10  C   -0.301636   0.000054
    11  H    0.174536  -0.000010
    12  C    0.133439   0.001988
    13  C    0.101472   0.004313
    14  C    0.016503  -0.016464
    15  C    0.085897   0.052957
    16  C   -0.142692   0.111578
    17  H    0.171468  -0.004182
    18  C   -0.514889   0.005482
    19  H    0.172639   0.000115
    20  C    0.323522  -0.010694
    21  C   -0.146022   0.010198
    22  H    0.173470  -0.000031
    23  C    0.085822   0.052972
    24  C    0.323975  -0.010699
    25  C   -0.514871   0.005481
    26  H    0.172642   0.000115
    27  C    0.016004  -0.016447
    28  C   -0.130563  -0.063232
    29  H    0.198341   0.001575
    30  C   -0.406953  -0.013808
    31  H    0.206191   0.000393
    32  C   -0.163671  -0.016017
    33  H    0.178914   0.000991
    34  C   -0.145950   0.010201
    35  H    0.173461  -0.000031
    36  C   -0.226478   0.032464
    37  H    0.164273  -0.001373
    38  C    0.114125   0.074739
    39  C   -0.163683   0.124031
    40  H    0.170583  -0.008193
    41  C   -0.312386  -0.002480
    42  H    0.176594   0.000474
    43  C   -0.169141   0.075868
    44  H    0.165415  -0.003361
    45  C   -0.226654   0.032493
    46  H    0.164279  -0.001373
    47  C   -0.220175   0.158542
    48  H    0.179972  -0.007677
    49  C   -0.406860  -0.013793
    50  H    0.206175   0.000393
    51  C   -0.312525  -0.002488
    52  H    0.176597   0.000474
    53  C   -0.143041   0.111599
    54  H    0.171471  -0.004182
    55  C    0.079181   0.031937
    56  H    0.176468  -0.001941
    57  C   -0.163649  -0.016020
    58  H    0.178914   0.000992
    59  C   -0.163730   0.124114
    60  H    0.170584  -0.008198
    61  C    0.078978   0.031897
    62  H    0.176463  -0.001940
    63  C   -0.169203   0.075889
    64  H    0.165420  -0.003362
    65  C   -0.130742  -0.063256
    66  H    0.198332   0.001574
    67  C   -0.220160   0.158576
    68  H    0.179973  -0.007679
 Sum of Mulliken charges =   1.00000   1.00000

 Dipole moment (field-independent basis, Debye):
    X=              0.0003    Y=              4.0949    Z=             -0.0027  Tot=              4.0949
 Quadrupole moment (field-independent basis, Debye-Ang):
   XX=           -222.0024   YY=           -173.7397   ZZ=           -177.0778
   XY=             -0.0027   XZ=             -3.1998   YZ=             -0.0002

 Normal termination of Gaussian 16 at Fri Mar 21 13:57:26 2025.
