 Gaussian 16, Revision A.03,
 Gaussian 16:  ES64L-G16RevA.03 25-Dec-2016

 --------------------------------------------
 #p opt UM062X/6-311+G** nosymm int=superfine
 --------------------------------------------

 -------------------
 Title Card Required
 -------------------
 Symbolic Z-matrix:
 Charge =  0 Multiplicity = 1

 SCF Done:  E(UM062X) =  -382.267973758     A.U. after   13 cycles
 SCF Done:  E(UM062X) =  -382.277638636     A.U. after   11 cycles
 SCF Done:  E(UM062X) =  -382.282587940     A.U. after   11 cycles
 SCF Done:  E(UM062X) =  -382.282643653     A.U. after    9 cycles
 SCF Done:  E(UM062X) =  -382.282673794     A.U. after    9 cycles
 SCF Done:  E(UM062X) =  -382.282688607     A.U. after   12 cycles
 SCF Done:  E(UM062X) =  -382.282690119     A.U. after    9 cycles
 SCF Done:  E(UM062X) =  -382.282691323     A.U. after    8 cycles
 Optimization completed.
    -- Stationary point found.

                          Input orientation:
 ---------------------------------------------------------------------
 Center     Atomic      Atomic             Coordinates (Angstroms)
 Number     Number       Type             X           Y           Z
 ---------------------------------------------------------------------
      1          6           0       -1.731264    0.000000    0.000000
      2         15           0        1.731264    0.000000    0.000000
      3          1           0        1.672394   -1.417788    0.031168
      4          1           0       -1.817719    1.050593    0.236836
      5          1           0        1.672466    0.082524    1.415710
      6          1           0       -1.817619   -0.316626   -1.029368
      7          1           0       -1.840494   -0.730543    0.788819
 ---------------------------------------------------------------------

 Alpha  occ. eigenvalues --  -78.03304 -10.59056  -6.85664  -4.97192  -4.97118
 Alpha  occ. eigenvalues --   -4.96933  -0.78348  -0.69431  -0.50391  -0.50335
 Alpha  occ. eigenvalues --   -0.43610  -0.34714  -0.25129
 Alpha virt. eigenvalues --   -0.10752   0.02082   0.03994   0.04020   0.04592
 Alpha virt. eigenvalues --    0.06350   0.06945   0.07129   0.07309   0.11791
 Alpha virt. eigenvalues --    0.17443   0.18535   0.18659   0.23671   0.30123

  Beta  occ. eigenvalues --  -78.03304 -10.59056  -6.85664  -4.97192  -4.97118
  Beta  occ. eigenvalues --   -4.96933  -0.78348  -0.69431  -0.50391  -0.50335
  Beta  occ. eigenvalues --   -0.43610  -0.34714  -0.25129
  Beta virt. eigenvalues --   -0.10752   0.02082   0.03994   0.04020   0.04592
  Beta virt. eigenvalues --    0.06350   0.06945   0.07129   0.07309   0.11791
  Beta virt. eigenvalues --    0.17443   0.18535   0.18659   0.23671   0.30123

 Mulliken charges and spin densities:
               1          2
     1  C   -0.527410   0.000001
     2  P   -0.040851  -0.000001
     3  H    0.003475   0.000000
     4  H    0.187807  -0.000000
     5  H    0.003482   0.000000
     6  H    0.187820  -0.000000
     7  H    0.185677  -0.000000
 Sum of Mulliken charges =  -0.00000   0.00000

 Dipole moment (field-independent basis, Debye):
    X=             -1.2424    Y=             -0.5558    Z=              0.6023  Tot=              1.4884
 Quadrupole moment (field-independent basis, Debye-Ang):
   XX=            -22.2884   YY=            -22.3269   ZZ=            -22.4399
   XY=             -1.1736   XZ=              1.2718   YZ=              0.7030

 Normal termination of Gaussian 16 at Mon Apr 21 19:02:37 2025.
