 Gaussian 16, Revision A.03,
 Gaussian 16:  ES64L-G16RevA.03 25-Dec-2016

 --------------------------------------------
 #p opt UM062X/6-311+G** nosymm int=superfine
 --------------------------------------------

 -------------------
 Title Card Required
 -------------------
 Symbolic Z-matrix:
 Charge =  0 Multiplicity = 1

 SCF Done:  E(UM062X) =  -83.1383183376     A.U. after   10 cycles
 SCF Done:  E(UM062X) =  -83.1508718940     A.U. after    9 cycles
 SCF Done:  E(UM062X) =  -83.1525403834     A.U. after    8 cycles
 SCF Done:  E(UM062X) =  -83.1525448086     A.U. after    7 cycles
 Optimization completed.
    -- Stationary point found.

                          Input orientation:
 ---------------------------------------------------------------------
 Center     Atomic      Atomic             Coordinates (Angstroms)
 Number     Number       Type             X           Y           Z
 ---------------------------------------------------------------------
      1          5           0       -1.377429    0.000000    0.000000
      2          7           0        1.377429    0.000000    0.000000
      3          1           0        1.734342   -0.948000    0.000002
      4          1           0       -1.428083   -0.594165    1.029091
      5          1           0        1.734217    0.474060   -0.821015
      6          1           0        1.734205    0.474058    0.821022
      7          1           0       -1.428105    1.188299    0.000013
      8          1           0       -1.428094   -0.594144   -1.029102
 ---------------------------------------------------------------------

 Alpha  occ. eigenvalues --  -14.74778  -7.02704  -0.97681  -0.56059  -0.55578
 Alpha  occ. eigenvalues --   -0.55577  -0.38402  -0.38401  -0.36124
 Alpha virt. eigenvalues --   -0.00290   0.02171   0.04823   0.04823   0.06791
 Alpha virt. eigenvalues --    0.08678   0.11036   0.11036   0.17084   0.17084
 Alpha virt. eigenvalues --    0.18136   0.20233   0.20233   0.23162   0.29595

  Beta  occ. eigenvalues --  -14.74778  -7.02704  -0.97681  -0.56059  -0.55578
  Beta  occ. eigenvalues --   -0.55577  -0.38402  -0.38401  -0.36124
  Beta virt. eigenvalues --   -0.00290   0.02171   0.04823   0.04823   0.06791
  Beta virt. eigenvalues --    0.08678   0.11036   0.11036   0.17084   0.17084
  Beta virt. eigenvalues --    0.18136   0.20233   0.20233   0.23162   0.29595

 Mulliken charges and spin densities:
               1          2
     1  B    0.017412   0.000000
     2  N   -0.751945  -0.000000
     3  H    0.260558   0.000000
     4  H   -0.015715  -0.000000
     5  H    0.260559   0.000000
     6  H    0.260560  -0.000000
     7  H   -0.015715  -0.000000
     8  H   -0.015714  -0.000000
 Sum of Mulliken charges =  -0.00000   0.00000

 Dipole moment (field-independent basis, Debye):
    X=              2.6451    Y=              0.0002    Z=              0.0000  Tot=              2.6451
 Quadrupole moment (field-independent basis, Debye-Ang):
   XX=            -12.4853   YY=            -15.7919   ZZ=            -15.7919
   XY=             -0.0000   XZ=             -0.0000   YZ=              0.0000

 Normal termination of Gaussian 16 at Mon Apr 21 17:33:22 2025.
