 Gaussian 16, Revision A.03,
 Gaussian 16:  ES64L-G16RevA.03 25-Dec-2016

 ---------------------------------------------------
 #p UM062X/6-311+G** force int=superfine pop=saveNBO
 ---------------------------------------------------

 -------------------
 Title Card Required
 -------------------
 Symbolic Z-matrix:
 Charge =  0 Multiplicity = 1

                         Standard orientation:
 ---------------------------------------------------------------------
 Center     Atomic      Atomic             Coordinates (Angstroms)
 Number     Number       Type             X           Y           Z
 ---------------------------------------------------------------------
      1          8           0        0.000000    0.000000   -2.793424
      2         16           0        0.000000    0.000000    1.396712
 ---------------------------------------------------------------------

 SCF Done:  E(UM062X) =  -473.003610976     A.U. after   18 cycles

 Unable to determine electronic state:  partially filled degenerate orbitals.
 Alpha  occ. eigenvalues --  -89.96867 -19.77064  -8.32924  -6.25722  -6.24127
 Alpha  occ. eigenvalues --   -6.24112  -1.06761  -0.77000  -0.45650  -0.45638
 Alpha  occ. eigenvalues --   -0.34256  -0.34179
 Alpha virt. eigenvalues --   -0.19669  -0.19407   0.03598   0.04795   0.05680
 Alpha virt. eigenvalues --    0.05689   0.14388   0.17650   0.17805   0.21664
 Alpha virt. eigenvalues --    0.33831   0.35032   0.35799   0.59077   0.77631

  Beta  occ. eigenvalues --  -89.96867 -19.77064  -8.32924  -6.25722  -6.24127
  Beta  occ. eigenvalues --   -6.24112  -1.06761  -0.77000  -0.45650  -0.45638
  Beta  occ. eigenvalues --   -0.34256  -0.34179
  Beta virt. eigenvalues --   -0.19669  -0.19407   0.03598   0.04795   0.05680
  Beta virt. eigenvalues --    0.05689   0.14388   0.17650   0.17805   0.21664
  Beta virt. eigenvalues --    0.33831   0.35032   0.35799   0.59077   0.77631

 Mulliken charges and spin densities:
               1          2
     1  O   -0.006869  -0.000000
     2  S    0.006869   0.000000
 Sum of Mulliken charges =   0.00000   0.00000

 Dipole moment (field-independent basis, Debye):
    X=              0.0000    Y=              0.0000    Z=              0.2166  Tot=              0.2166
 Quadrupole moment (field-independent basis, Debye-Ang):
   XX=            -21.1508   YY=            -15.6837   ZZ=            -19.0256
   XY=              0.0000   XZ=              0.0000   YZ=              0.0000

 Summary of Natural Population Analysis:

                                       Natural Population
                Natural  -----------------------------------------------
    Atom  No    Charge         Core      Valence    Rydberg      Total
 -----------------------------------------------------------------------
      O    1   -0.00401      1.00000     3.00388    0.00013     4.00401
      S    2    0.00401      4.99999     2.99556    0.00044     7.99599
 =======================================================================
   * Total *    0.00000      5.99999     5.99944    0.00057    12.00000

 Normal termination of Gaussian 16 at Mon Apr 21 20:01:25 2025.
