 Gaussian 16, Revision A.03,
 Gaussian 16:  ES64L-G16RevA.03 25-Dec-2016

 ---------------------------------------
 #p UM062X/6-311+G** force int=superfine
 ---------------------------------------

 -------------------
 Title Card Required
 -------------------
 Symbolic Z-matrix:
 Charge =  1 Multiplicity = 2

                         Standard orientation:
 ---------------------------------------------------------------------
 Center     Atomic      Atomic             Coordinates (Angstroms)
 Number     Number       Type             X           Y           Z
 ---------------------------------------------------------------------
      1          6           0        0.000000    0.000000    0.534355
      2          6           0        0.000000    0.000000   -0.534355
      3          1           0        0.000000    0.000000    1.610186
      4          1           0        0.000000    0.000000   -1.610186
 ---------------------------------------------------------------------

 SCF Done:  E(UM062X) =  -76.8279048226     A.U. after    9 cycles

 Unable to determine electronic state:  an orbital has unidentified symmetry.
 Alpha  occ. eigenvalues --  -10.91383 -10.90591  -1.29347  -0.95856  -0.90832
 Alpha  occ. eigenvalues --   -0.78755  -0.75571
 Alpha virt. eigenvalues --   -0.22244  -0.20357  -0.14649  -0.14188  -0.11868
 Alpha virt. eigenvalues --   -0.11049  -0.10739  -0.04073  -0.03482  -0.03436
 Alpha virt. eigenvalues --    0.02385   0.04446   0.17442   0.19335   0.26986

  Beta  occ. eigenvalues --  -10.91082 -10.90332  -1.23904  -0.94318  -0.90124
  Beta  occ. eigenvalues --   -0.72956
  Beta virt. eigenvalues --   -0.49778  -0.19021  -0.17240  -0.15624  -0.13685
  Beta virt. eigenvalues --   -0.11854  -0.11250  -0.10864  -0.03109  -0.02888
  Beta virt. eigenvalues --   -0.02220   0.02457   0.04807   0.18129   0.19753

 Mulliken charges and spin densities:
               1          2
     1  C    0.220848   0.519904
     2  C    0.220848   0.519904
     3  H    0.279152  -0.019904
     4  H    0.279152  -0.019904
 Sum of Mulliken charges =   1.00000   1.00000

 Dipole moment (field-independent basis, Debye):
    X=              0.0000    Y=             -0.0000    Z=             -0.0000  Tot=              0.0000
 Quadrupole moment (field-independent basis, Debye-Ang):
   XX=            -10.7385   YY=             -9.0994   ZZ=             -1.6403
   XY=              0.0000   XZ=             -0.0000   YZ=             -0.0000

 Normal termination of Gaussian 16 at Tue Nov 19 13:27:57 2024.
