 Gaussian 16, Revision A.03,
 Gaussian 16:  ES64L-G16RevA.03 25-Dec-2016

 ---------------------------------------
 #p UM062X/6-311+G** force int=superfine
 ---------------------------------------

 -------------------
 Title Card Required
 -------------------
 Symbolic Z-matrix:
 Charge =  0 Multiplicity = 1

                         Standard orientation:
 ---------------------------------------------------------------------
 Center     Atomic      Atomic             Coordinates (Angstroms)
 Number     Number       Type             X           Y           Z
 ---------------------------------------------------------------------
      1          6           0       -1.089076   -0.200642   -0.497694
      2          6           0        1.089076    0.200642    0.497694
      3          1           0        1.746393   -0.218618   -0.252779
      4          1           0       -1.005165    0.353353   -1.423494
      5          1           0        1.005168   -0.353351    1.423495
      6          1           0        1.088023    1.279356    0.583932
      7          1           0       -1.746392    0.218618    0.252779
      8          1           0       -1.088027   -1.279356   -0.583935
 ---------------------------------------------------------------------

 SCF Done:  E(UM062X) =  -79.6841717187     A.U. after    8 cycles

 The electronic state is 1-A.
 Alpha  occ. eigenvalues --  -10.55712 -10.55707  -0.77471  -0.74137  -0.48282
 Alpha  occ. eigenvalues --   -0.48282  -0.46303  -0.46302  -0.28397
 Alpha virt. eigenvalues --   -0.01587   0.02539   0.05525   0.05526   0.07007
 Alpha virt. eigenvalues --    0.08240   0.08240   0.10109   0.12992   0.18166
 Alpha virt. eigenvalues --    0.18166   0.22028   0.22028   0.24363   0.26155

  Beta  occ. eigenvalues --  -10.55712 -10.55707  -0.77471  -0.74137  -0.48282
  Beta  occ. eigenvalues --   -0.48282  -0.46303  -0.46302  -0.28397
  Beta virt. eigenvalues --   -0.01587   0.02539   0.05525   0.05526   0.07007
  Beta virt. eigenvalues --    0.08240   0.08240   0.10109   0.12992   0.18166
  Beta virt. eigenvalues --    0.18166   0.22028   0.22028   0.24363   0.26155

 Mulliken charges and spin densities:
               1          2
     1  C   -0.510348  -0.000000
     2  C   -0.510347   0.000000
     3  H    0.170116  -0.000000
     4  H    0.170115   0.000000
     5  H    0.170115   0.000000
     6  H    0.170116  -0.000000
     7  H    0.170116   0.000000
     8  H    0.170116   0.000000
 Sum of Mulliken charges =  -0.00000  -0.00000

 Dipole moment (field-independent basis, Debye):
    X=              0.0000    Y=              0.0000    Z=              0.0000  Tot=              0.0000
 Quadrupole moment (field-independent basis, Debye-Ang):
   XX=            -15.3894   YY=            -14.8259   ZZ=            -14.9279
   XY=             -0.1075   XZ=             -0.2666   YZ=             -0.0491

 Normal termination of Gaussian 16 at Tue Nov 19 12:57:21 2024.
