 Gaussian 16, Revision A.03,
 Gaussian 16:  ES64L-G16RevA.03 25-Dec-2016

 --------------------------------------------
 #p opt UM062X/6-311+G** nosymm int=superfine
 --------------------------------------------

 -------------------
 Title Card Required
 -------------------
 Symbolic Z-matrix:
 Charge =  0 Multiplicity = 1

 SCF Done:  E(UM062X) =  -474.461769187     A.U. after   17 cycles
 SCF Done:  E(UM062X) =  -474.465375200     A.U. after   14 cycles
 SCF Done:  E(UM062X) =  -474.466709626     A.U. after   16 cycles
 SCF Done:  E(UM062X) =  -474.466767588     A.U. after   14 cycles
 SCF Done:  E(UM062X) =  -474.466770066     A.U. after   12 cycles
 Optimization completed.
    -- Stationary point found.

                          Input orientation:
 ---------------------------------------------------------------------
 Center     Atomic      Atomic             Coordinates (Angstroms)
 Number     Number       Type             X           Y           Z
 ---------------------------------------------------------------------
      1          8           0       -1.239392    0.000000    0.000000
      2         16           0        1.239392    0.000000    0.000000
      3          1           0       -1.286895   -0.950289   -0.181896
      4          1           0        1.147234    0.351327    1.294748
 ---------------------------------------------------------------------

 Alpha  occ. eigenvalues --  -89.97348 -19.67404  -8.33379  -6.25597  -6.25228
 Alpha  occ. eigenvalues --   -6.24681  -1.09007  -0.83111  -0.52930  -0.49181
 Alpha  occ. eigenvalues --   -0.40094  -0.39493  -0.34819
 Alpha virt. eigenvalues --   -0.15423   0.01568   0.04096   0.04781   0.05695
 Alpha virt. eigenvalues --    0.07508   0.15104   0.19517   0.20003   0.21558
 Alpha virt. eigenvalues --    0.26886   0.31405   0.34019   0.35324   0.40331

  Beta  occ. eigenvalues --  -89.97348 -19.67404  -8.33379  -6.25597  -6.25228
  Beta  occ. eigenvalues --   -6.24681  -1.09007  -0.83111  -0.52930  -0.49181
  Beta  occ. eigenvalues --   -0.40094  -0.39493  -0.34819
  Beta virt. eigenvalues --   -0.15423   0.01568   0.04096   0.04781   0.05695
  Beta virt. eigenvalues --    0.07508   0.15104   0.19517   0.20003   0.21558
  Beta virt. eigenvalues --    0.26886   0.31405   0.34019   0.35324   0.40331

 Mulliken charges and spin densities:
               1          2
     1  O   -0.433813   0.000000
     2  S    0.073816  -0.000000
     3  H    0.250334  -0.000000
     4  H    0.109663   0.000000
 Sum of Mulliken charges =  -0.00000   0.00000

 Dipole moment (field-independent basis, Debye):
    X=              1.7951    Y=             -1.3395    Z=              0.7846  Tot=              2.3732
 Quadrupole moment (field-independent basis, Debye-Ang):
   XX=            -18.3519   YY=            -19.8309   ZZ=            -18.6176
   XY=              2.8870   XZ=              1.9875   YZ=              1.5143

 Normal termination of Gaussian 16 at Thu May 15 12:57:46 2025.
