 Gaussian 16, Revision A.03,
 Gaussian 16:  ES64L-G16RevA.03 25-Dec-2016

 --------------------------------------------
 #p opt UM062X/6-311+G** nosymm int=superfine
 --------------------------------------------

 -------------------
 Title Card Required
 -------------------
 Symbolic Z-matrix:
 Charge =  0 Multiplicity = 1

 SCF Done:  E(UM062X) =  -111.695277561     A.U. after   16 cycles
 SCF Done:  E(UM062X) =  -111.714920833     A.U. after   14 cycles
 SCF Done:  E(UM062X) =  -111.723675052     A.U. after   14 cycles
 SCF Done:  E(UM062X) =  -111.724709105     A.U. after   11 cycles
 SCF Done:  E(UM062X) =  -111.726028762     A.U. after   13 cycles
 SCF Done:  E(UM062X) =  -111.726370919     A.U. after   13 cycles
 SCF Done:  E(UM062X) =  -111.726463718     A.U. after   11 cycles
 SCF Done:  E(UM062X) =  -111.726483202     A.U. after   10 cycles
 SCF Done:  E(UM062X) =  -111.726486607     A.U. after    9 cycles
 SCF Done:  E(UM062X) =  -111.726486860     A.U. after    9 cycles
 Optimization completed.
    -- Stationary point found.

                          Input orientation:
 ---------------------------------------------------------------------
 Center     Atomic      Atomic             Coordinates (Angstroms)
 Number     Number       Type             X           Y           Z
 ---------------------------------------------------------------------
      1          7           0       -1.211540    0.000000    0.000000
      2          7           0        1.211540    0.000000    0.000000
      3          1           0       -1.185138   -0.821735   -0.613555
      4          1           0        1.185159    0.417074   -0.936877
      5          1           0       -1.184931   -0.418292    0.936327
      6          1           0        1.184929    0.822517    0.612491
 ---------------------------------------------------------------------

 Alpha  occ. eigenvalues --  -14.79898 -14.79894  -0.95919  -0.92633  -0.55350
 Alpha  occ. eigenvalues --   -0.53266  -0.41185  -0.39348  -0.33486
 Alpha virt. eigenvalues --   -0.10590   0.04589   0.07321   0.08800   0.11483
 Alpha virt. eigenvalues --    0.13270   0.13765   0.15523   0.15978   0.20315
 Alpha virt. eigenvalues --    0.21638   0.27148   0.27857   0.51398   0.51820

  Beta  occ. eigenvalues --  -14.79898 -14.79894  -0.95919  -0.92633  -0.55350
  Beta  occ. eigenvalues --   -0.53266  -0.41185  -0.39348  -0.33486
  Beta virt. eigenvalues --   -0.10590   0.04589   0.07321   0.08800   0.11483
  Beta virt. eigenvalues --    0.13270   0.13765   0.15523   0.15978   0.20315
  Beta virt. eigenvalues --    0.21638   0.27148   0.27857   0.51398   0.51820

 Mulliken charges and spin densities:
               1          2
     1  N   -0.512963   0.000000
     2  N   -0.512968  -0.000000
     3  H    0.256453  -0.000000
     4  H    0.256454   0.000000
     5  H    0.256511  -0.000000
     6  H    0.256513   0.000000
 Sum of Mulliken charges =  -0.00000  -0.00000

 Dipole moment (field-independent basis, Debye):
    X=              0.0000    Y=             -0.0006    Z=             -0.0024  Tot=              0.0025
 Quadrupole moment (field-independent basis, Debye-Ang):
   XX=            -15.4955   YY=            -14.0588   ZZ=            -11.3369
   XY=              5.3826   XZ=             -1.4048   YZ=              0.7623

 Normal termination of Gaussian 16 at Thu May 15 14:35:50 2025.
