 Gaussian 16, Revision A.03,
 Gaussian 16:  ES64L-G16RevA.03 25-Dec-2016

 --------------------------------------------
 #p opt UM062X/6-311+G** nosymm int=superfine
 --------------------------------------------

 -------------------
 Title Card Required
 -------------------
 Symbolic Z-matrix:
 Charge =  1 Multiplicity = 2

 SCF Done:  E(UM062X) =  -79.3129007839     A.U. after   10 cycles
 SCF Done:  E(UM062X) =  -79.3146243962     A.U. after    9 cycles
 SCF Done:  E(UM062X) =  -79.3146469532     A.U. after    9 cycles
 Optimization completed.
    -- Stationary point found.

                          Input orientation:
 ---------------------------------------------------------------------
 Center     Atomic      Atomic             Coordinates (Angstroms)
 Number     Number       Type             X           Y           Z
 ---------------------------------------------------------------------
      1          6           0       -2.154275    0.000000    0.000000
      2          6           0        2.154275    0.000000    0.000000
      3          1           0        2.177070   -0.937389    0.542547
      4          1           0       -2.175120   -0.938483   -0.540724
      5          1           0        2.176226    0.938578    0.540519
      6          1           0        2.175160   -0.001172   -1.083112
      7          1           0       -2.177129    0.937498   -0.542357
      8          1           0       -2.176207    0.000951    1.083093
 ---------------------------------------------------------------------

 Alpha  occ. eigenvalues --  -10.82961 -10.82960  -1.01576  -1.01362  -0.72681
 Alpha  occ. eigenvalues --   -0.72680  -0.72624  -0.72624  -0.46238
 Alpha virt. eigenvalues --   -0.37851  -0.12380  -0.10053  -0.09081  -0.09081
 Alpha virt. eigenvalues --   -0.06194  -0.06194  -0.04433  -0.02604   0.00512
 Alpha virt. eigenvalues --    0.00515   0.01511   0.01513   0.02321   0.09115

  Beta  occ. eigenvalues --  -10.82735 -10.82734  -0.98912  -0.98806  -0.72143
  Beta  occ. eigenvalues --   -0.72142  -0.72077  -0.72077
  Beta virt. eigenvalues --   -0.31639  -0.26684  -0.17116  -0.10353  -0.10352
  Beta virt. eigenvalues --   -0.10245  -0.06140  -0.06139  -0.05715  -0.01635
  Beta virt. eigenvalues --    0.00418   0.00420   0.01759   0.01761   0.02248

 Mulliken charges and spin densities:
               1          2
     1  C   -0.237804   0.558684
     2  C   -0.237802   0.558685
     3  H    0.245950  -0.019563
     4  H    0.245915  -0.019562
     5  H    0.245934  -0.019565
     6  H    0.245918  -0.019557
     7  H    0.245951  -0.019563
     8  H    0.245938  -0.019559
 Sum of Mulliken charges =   1.00000   1.00000

 Dipole moment (field-independent basis, Debye):
    X=              0.0000    Y=             -0.0000    Z=             -0.0000  Tot=              0.0001
 Quadrupole moment (field-independent basis, Debye-Ang):
   XX=             10.6458   YY=            -11.1216   ZZ=            -11.1217
   XY=             -0.0021   XZ=              0.0012   YZ=              0.0000

 Normal termination of Gaussian 16 at Sat Nov 16 16:10:57 2024.
