 Gaussian 16, Revision A.03,
 Gaussian 16:  ES64L-G16RevA.03 25-Dec-2016

 ----------------------------------------------------------------------
 #p opt UM062X/6-311+G** nosymm int=superfine SCF=(MaxCycle=200,NoVarAc
 c,noincfock) guess=read
 ----------------------------------------------------------------------

 -------------------
 Title Card Required
 -------------------
 Symbolic Z-matrix:
 Charge =  0 Multiplicity = 1

 SCF Done:  E(UM062X) =  -151.296559039     A.U. after   22 cycles
 SCF Done:  E(UM062X) =  -151.296890250     A.U. after   19 cycles
 SCF Done:  E(UM062X) =  -151.297159113     A.U. after   29 cycles
 SCF Done:  E(UM062X) =  -151.297494762     A.U. after   21 cycles
 SCF Done:  E(UM062X) =  -151.297738250     A.U. after   21 cycles
 SCF Done:  E(UM062X) =  -151.297972514     A.U. after   24 cycles
 SCF Done:  E(UM062X) =  -151.298117151     A.U. after   20 cycles
 SCF Done:  E(UM062X) =  -151.298183581     A.U. after   19 cycles
 SCF Done:  E(UM062X) =  -151.298225224     A.U. after   38 cycles
 SCF Done:  E(UM062X) =  -151.298237803     A.U. after   27 cycles
 SCF Done:  E(UM062X) =  -151.298239708     A.U. after   25 cycles
 SCF Done:  E(UM062X) =  -151.298239783     A.U. after   17 cycles
 SCF Done:  E(UM062X) =  -151.298239788     A.U. after   13 cycles
 Optimization completed.
    -- Stationary point found.

                          Input orientation:
 ---------------------------------------------------------------------
 Center     Atomic      Atomic             Coordinates (Angstroms)
 Number     Number       Type             X           Y           Z
 ---------------------------------------------------------------------
      1          8           0       -2.111938    0.000000    0.000000
      2          8           0        2.111938    0.000000    0.000000
      3          1           0       -1.922711   -0.756769   -0.582533
      4          1           0        1.923206    0.756790    0.582663
 ---------------------------------------------------------------------

 Alpha  occ. eigenvalues --  -19.72157 -19.72156  -1.12820  -1.12713  -0.56599
 Alpha  occ. eigenvalues --   -0.56564  -0.44014  -0.43962  -0.35329
 Alpha virt. eigenvalues --   -0.27840   0.05229   0.07171   0.15397   0.15481
 Alpha virt. eigenvalues --    0.15831   0.17896   0.19055   0.19763   0.20026
 Alpha virt. eigenvalues --    0.29607   0.49512   0.50186   0.99691   1.00978

  Beta  occ. eigenvalues --  -19.72157 -19.72156  -1.12820  -1.12713  -0.56599
  Beta  occ. eigenvalues --   -0.56564  -0.44014  -0.43962  -0.35329
  Beta virt. eigenvalues --   -0.27840   0.05229   0.07171   0.15397   0.15481
  Beta virt. eigenvalues --    0.15831   0.17896   0.19055   0.19763   0.20026
  Beta virt. eigenvalues --    0.29607   0.49512   0.50186   0.99691   1.00978

 Mulliken charges and spin densities:
               1          2
     1  O   -0.265555   0.000000
     2  O   -0.265579  -0.000000
     3  H    0.265569   0.000000
     4  H    0.265564  -0.000000
 Sum of Mulliken charges =  -0.00000  -0.00000

 Dipole moment (field-independent basis, Debye):
    X=              0.0007    Y=              0.0000    Z=              0.0002  Tot=              0.0008
 Quadrupole moment (field-independent basis, Debye-Ang):
   XX=            -13.9763   YY=            -10.5996   ZZ=            -11.8874
   XY=              5.8593   XZ=              4.5106   YZ=              2.4337

 Normal termination of Gaussian 16 at Tue Apr 22 00:26:35 2025.
