 Gaussian 16, Revision A.03,
 Gaussian 16:  ES64L-G16RevA.03 25-Dec-2016

 ---------------------------------------
 #p UM062X/6-311+G** force int=superfine
 ---------------------------------------

 -------------------
 Title Card Required
 -------------------
 Symbolic Z-matrix:
 Charge =  1 Multiplicity = 2

                         Standard orientation:
 ---------------------------------------------------------------------
 Center     Atomic      Atomic             Coordinates (Angstroms)
 Number     Number       Type             X           Y           Z
 ---------------------------------------------------------------------
      1          6           0        0.000000    0.000000    0.714544
      2          6           0        0.000000    0.000000   -0.714544
      3          1           0        0.000000    0.000000    1.801404
      4          1           0        0.000000    0.000000   -1.801404
 ---------------------------------------------------------------------

 SCF Done:  E(UM062X) =  -76.8576822763     A.U. after    9 cycles

 Unable to determine electronic state:  an orbital has unidentified symmetry.
 Alpha  occ. eigenvalues --  -10.97133 -10.97052  -1.16573  -0.98182  -0.87814
 Alpha  occ. eigenvalues --   -0.68303  -0.65922
 Alpha virt. eigenvalues --   -0.31795  -0.29775  -0.18851  -0.14368  -0.11172
 Alpha virt. eigenvalues --   -0.09735  -0.09487  -0.09209  -0.05111  -0.04740
 Alpha virt. eigenvalues --    0.02080   0.04361   0.11752   0.20346   0.30815

  Beta  occ. eigenvalues --  -10.96895 -10.96832  -1.12162  -0.96530  -0.87234
  Beta  occ. eigenvalues --   -0.63632
  Beta virt. eigenvalues --   -0.43592  -0.28089  -0.24521  -0.17168  -0.15509
  Beta virt. eigenvalues --   -0.11427  -0.10051  -0.09813  -0.09141  -0.04795
  Beta virt. eigenvalues --   -0.04344   0.01548   0.04523   0.12321   0.21255

 Mulliken charges and spin densities:
               1          2
     1  C    0.164381   0.520078
     2  C    0.164381   0.520078
     3  H    0.335619  -0.020078
     4  H    0.335619  -0.020078
 Sum of Mulliken charges =   1.00000   1.00000

 Dipole moment (field-independent basis, Debye):
    X=              0.0000    Y=             -0.0000    Z=              0.0000  Tot=              0.0000
 Quadrupole moment (field-independent basis, Debye-Ang):
   XX=            -10.1031   YY=            -12.0457   ZZ=              0.8855
   XY=              0.0000   XZ=             -0.0000   YZ=              0.0000

 Normal termination of Gaussian 16 at Tue Nov 19 13:33:19 2024.
