 Gaussian 16, Revision A.03,
 Gaussian 16:  ES64L-G16RevA.03 25-Dec-2016

 --------------------------------------------
 #p opt UM062X/6-311+G** nosymm int=superfine
 --------------------------------------------

 -------------------
 Title Card Required
 -------------------
 Symbolic Z-matrix:
 Charge =  0 Multiplicity = 1

 SCF Done:  E(UM062X) =  -379.548372912     A.U. after   15 cycles
 SCF Done:  E(UM062X) =  -379.549823597     A.U. after   12 cycles
 SCF Done:  E(UM062X) =  -379.549830074     A.U. after   11 cycles
 Optimization completed.
    -- Stationary point found.

                          Input orientation:
 ---------------------------------------------------------------------
 Center     Atomic      Atomic             Coordinates (Angstroms)
 Number     Number       Type             X           Y           Z
 ---------------------------------------------------------------------
      1          6           0       -2.190377    0.000000    0.000000
      2         15           0        2.190377    0.000000    0.000000
      3          1           0       -3.313623    0.000000    0.000000
 ---------------------------------------------------------------------

 Alpha  occ. eigenvalues --  -78.06146 -10.72358  -6.88101  -5.00030  -4.99073
 Alpha  occ. eigenvalues --   -4.99073  -0.77150  -0.59781  -0.42755  -0.22842
 Alpha  occ. eigenvalues --   -0.22842
 Alpha virt. eigenvalues --   -0.16182  -0.16182  -0.11346   0.00992   0.04330
 Alpha virt. eigenvalues --    0.05912   0.05912   0.07546   0.08169   0.08169
 Alpha virt. eigenvalues --    0.12501   0.15451   0.33125   0.33922   0.33922

  Beta  occ. eigenvalues --  -78.06146 -10.72358  -6.88101  -5.00030  -4.99073
  Beta  occ. eigenvalues --   -4.99073  -0.77150  -0.59781  -0.42755  -0.22842
  Beta  occ. eigenvalues --   -0.22842
  Beta virt. eigenvalues --   -0.16182  -0.16182  -0.11346   0.00992   0.04330
  Beta virt. eigenvalues --    0.05912   0.05912   0.07546   0.08169   0.08169
  Beta virt. eigenvalues --    0.12501   0.15451   0.33125   0.33922   0.33922

 Mulliken charges and spin densities:
               1          2
     1  C   -0.049930   0.000000
     2  P   -0.106306  -0.000000
     3  H    0.156235  -0.000000
 Sum of Mulliken charges =  -0.00000  -0.00000

 Dipole moment (field-independent basis, Debye):
    X=             -4.1354    Y=              0.0000    Z=             -0.0000  Tot=              4.1354
 Quadrupole moment (field-independent basis, Debye-Ang):
   XX=             -9.6217   YY=            -24.1297   ZZ=            -24.1297
   XY=             -0.0000   XZ=             -0.0000   YZ=             -0.0000

 Normal termination of Gaussian 16 at Mon Apr 21 19:25:40 2025.
