 Gaussian 16, Revision A.03,
 Gaussian 16:  ES64L-G16RevA.03 25-Dec-2016

 --------------------------------------------
 #p opt UM062X/6-311+G** nosymm int=superfine
 --------------------------------------------

 -------------------
 Title Card Required
 -------------------
 Symbolic Z-matrix:
 Charge =  0 Multiplicity = 2

 SCF Done:  E(UM062X) =  -39.8095659423     A.U. after   10 cycles
 SCF Done:  E(UM062X) =  -39.8180571907     A.U. after   11 cycles
 SCF Done:  E(UM062X) =  -39.8204730417     A.U. after   11 cycles
 SCF Done:  E(UM062X) =  -39.8207833516     A.U. after   10 cycles
 SCF Done:  E(UM062X) =  -39.8208572545     A.U. after    9 cycles
 SCF Done:  E(UM062X) =  -39.8208668602     A.U. after    8 cycles
 SCF Done:  E(UM062X) =  -39.8208686408     A.U. after    8 cycles
 Optimization completed.
    -- Stationary point found.

                          Input orientation:
 ---------------------------------------------------------------------
 Center     Atomic      Atomic             Coordinates (Angstroms)
 Number     Number       Type             X           Y           Z
 ---------------------------------------------------------------------
      1          6           0       -1.216000    0.014268   -0.015425
      2          1           0       -1.184964    1.065758    0.223775
      3          1           0       -1.184969   -0.305924   -1.045146
      4          1           0       -1.274851   -0.717244    0.775334
 ---------------------------------------------------------------------

 Alpha  occ. eigenvalues --  -10.54495  -0.77839  -0.49114  -0.49111  -0.28694
 Alpha virt. eigenvalues --    0.03944   0.05986   0.05986   0.09091   0.18983
 Alpha virt. eigenvalues --    0.19450   0.19451   0.44022   0.44023   0.48677
 Alpha virt. eigenvalues --    0.57584   0.65716   0.65719   0.75490   1.09616

  Beta  occ. eigenvalues --  -10.53806  -0.73026  -0.47830  -0.47827
  Beta virt. eigenvalues --   -0.04277   0.02681   0.06172   0.06172   0.12576
  Beta virt. eigenvalues --    0.19838   0.19840   0.20587   0.43374   0.43375
  Beta virt. eigenvalues --    0.49513   0.59736   0.67914   0.67917   0.77449

 Mulliken charges and spin densities:
               1          2
     1  C   -0.484065   1.150246
     2  H    0.161357  -0.050081
     3  H    0.161357  -0.050081
     4  H    0.161351  -0.050084
 Sum of Mulliken charges =  -0.00000   1.00000

 Dipole moment (field-independent basis, Debye):
    X=              0.0025    Y=             -0.0001    Z=              0.0001  Tot=              0.0025
 Quadrupole moment (field-independent basis, Debye-Ang):
   XX=             -9.2609   YY=             -7.2564   ZZ=             -7.2569
   XY=              0.0758   XZ=             -0.0819   YZ=              0.0033

 1\1\GINC-NODE02\FOpt\UM062X\6-311+G(d,p)\C1H3(2)\SZHAO\16-Apr-2025\0\\
 #p opt UM062X/6-311+G** nosymm int=superfine\\Title Card Required\\0,2
 \C,-1.2160003494,0.0142684702,-0.0154248483\H,-1.1849638057,1.06575834
 54,0.2237745683\H,-1.1849686528,-0.3059241217,-1.0451455828\H,-1.27485
 1082,-0.717244234,0.7753338028\\Version=ES64L-G16RevA.03\HF=-39.820868
 6\S2=0.754649\S2-1=0.\S2A=0.750015\RMSD=2.606e-09\RMSF=1.904e-05\Dipol
 e=0.0009715,-0.0000436,0.0000485\Quadrupole=-0.9933941,0.4968839,0.496
 5101,0.0563364,-0.0608996,0.0024491\PG=C01 [X(C1H3)]\\@

 Normal termination of Gaussian 16 at Wed Apr 16 08:38:54 2025.
