 Gaussian 16, Revision A.03,
 Gaussian 16:  ES64L-G16RevA.03 25-Dec-2016

 --------------------------------------------
 #p opt UM062X/6-311+G** nosymm int=superfine
 --------------------------------------------

 -------------------
 Title Card Required
 -------------------
 Symbolic Z-matrix:
 Charge =  1 Multiplicity = 2

 SCF Done:  E(UM062X) =  -80.2638501772     A.U. after   17 cycles
 SCF Done:  E(UM062X) =  -80.2705958956     A.U. after   16 cycles
 SCF Done:  E(UM062X) =  -80.2650263896     A.U. after   15 cycles
 SCF Done:  E(UM062X) =  -80.2732777982     A.U. after   16 cycles
 SCF Done:  E(UM062X) =  -80.2733850348     A.U. after   13 cycles
 SCF Done:  E(UM062X) =  -80.2733880039     A.U. after   11 cycles
 SCF Done:  E(UM062X) =  -80.2733880879     A.U. after   11 cycles
 Optimization completed.
    -- Stationary point found.

                          Input orientation:
 ---------------------------------------------------------------------
 Center     Atomic      Atomic             Coordinates (Angstroms)
 Number     Number       Type             X           Y           Z
 ---------------------------------------------------------------------
      1          5           0       -0.927734    0.000000    0.000000
      2          7           0        0.927734    0.000000    0.000000
      3          1           0       -2.091672   -0.150121    0.163171
      4          1           0        1.154873    0.689983   -0.746057
 ---------------------------------------------------------------------

 Alpha  occ. eigenvalues --  -15.10351  -7.51816  -1.20868  -0.87098  -0.77055
 Alpha  occ. eigenvalues --   -0.67817  -0.66840
 Alpha virt. eigenvalues --   -0.32973  -0.32350  -0.25585  -0.15107  -0.12004
 Alpha virt. eigenvalues --   -0.10411  -0.09555  -0.05261  -0.02287  -0.01064
 Alpha virt. eigenvalues --    0.00129   0.03973   0.06340   0.16542   0.16845

  Beta  occ. eigenvalues --  -15.09183  -7.51940  -1.14003  -0.87091  -0.75077
  Beta  occ. eigenvalues --   -0.64387
  Beta virt. eigenvalues --   -0.37781  -0.33169  -0.27166  -0.23831  -0.15043
  Beta virt. eigenvalues --   -0.11876  -0.09787  -0.09579  -0.05440  -0.02454
  Beta virt. eigenvalues --   -0.01196   0.00045   0.02526   0.04979   0.16362

 Mulliken charges and spin densities:
               1          2
     1  B    0.562386  -0.057127
     2  N   -0.045649   1.111661
     3  H    0.197653  -0.014947
     4  H    0.285610  -0.039587
 Sum of Mulliken charges =   1.00000   1.00000

 Dipole moment (field-independent basis, Debye):
    X=             -3.6893    Y=              1.0803    Z=             -1.1680  Tot=              4.0177
 Quadrupole moment (field-independent basis, Debye-Ang):
   XX=             -3.1970   YY=             -9.4609   ZZ=             -9.3779
   XY=              1.8237   XZ=             -1.9725   YZ=             -0.5311

 Normal termination of Gaussian 16 at Mon Apr 21 18:51:59 2025.
