 Gaussian 16, Revision A.03,
 Gaussian 16:  ES64L-G16RevA.03 25-Dec-2016

 ---------------------------------------
 #p UM062X/6-311+G** force int=superfine
 ---------------------------------------

 -------------------
 Title Card Required
 -------------------
 Symbolic Z-matrix:
 Charge =  1 Multiplicity = 2

                         Standard orientation:
 ---------------------------------------------------------------------
 Center     Atomic      Atomic             Coordinates (Angstroms)
 Number     Number       Type             X           Y           Z
 ---------------------------------------------------------------------
      1          7           0        0.000000    0.000000    1.905391
      2          7           0        0.000000    0.000000   -1.905391
 ---------------------------------------------------------------------

 SCF Done:  E(UM062X) =  -108.328841134     A.U. after   11 cycles

 Unable to determine electronic state:  partially filled degenerate orbitals.
 Alpha  occ. eigenvalues --  -15.30237 -15.30234  -1.18969  -1.18533  -0.64506
 Alpha  occ. eigenvalues --   -0.62601  -0.61877
 Alpha virt. eigenvalues --   -0.57014  -0.54374  -0.53840  -0.12937  -0.07998
 Alpha virt. eigenvalues --   -0.07539  -0.07370  -0.04414  -0.02932  -0.02747
 Alpha virt. eigenvalues --    0.03479   0.51934   0.53040   0.53141   0.54307

  Beta  occ. eigenvalues --  -15.29747 -15.29745  -1.15232  -1.14863  -0.60843
  Beta  occ. eigenvalues --   -0.60100
  Beta virt. eigenvalues --   -0.52584  -0.51985  -0.43176  -0.42951  -0.13700
  Beta virt. eigenvalues --   -0.08823  -0.07689  -0.07395  -0.04617  -0.03243
  Beta virt. eigenvalues --   -0.02958   0.02451   0.52933   0.53292   0.54339

 Mulliken charges and spin densities:
               1          2
     1  N    0.500000   0.500000
     2  N    0.500000   0.500000
 Sum of Mulliken charges =   1.00000   1.00000

 Dipole moment (field-independent basis, Debye):
    X=              0.0000    Y=              0.0000    Z=              0.0000  Tot=              0.0000
 Quadrupole moment (field-independent basis, Debye-Ang):
   XX=            -10.0006   YY=             -8.5603   ZZ=              8.7532
   XY=             -0.0000   XZ=             -0.0000   YZ=             -0.0000

 Optimization completed.
    -- Stationary point found.
 Normal termination of Gaussian 16 at Wed Feb 26 14:02:01 2025.
