 Gaussian 16, Revision A.03,
 Gaussian 16:  ES64L-G16RevA.03 25-Dec-2016

 --------------------------------------------
 #p opt UM062X/6-311+G** nosymm int=superfine
 --------------------------------------------

 -------------------
 Title Card Required
 -------------------
 Symbolic Z-matrix:
 Charge =  0 Multiplicity = 3

 SCF Done:  E(UM062X) =  -50.5151544511     A.U. after   18 cycles
 SCF Done:  E(UM062X) =  -50.5152277173     A.U. after   15 cycles
 Optimization completed.
    -- Stationary point found.

                          Input orientation:
 ---------------------------------------------------------------------
 Center     Atomic      Atomic             Coordinates (Angstroms)
 Number     Number       Type             X           Y           Z
 ---------------------------------------------------------------------
      1          5           0       -1.328410    0.000000    0.000000
      2          5           0        1.328410    0.000000    0.000000
      3          1           0       -2.509753   -0.000081   -0.000000
      4          1           0        2.509753    0.000081    0.000000
 ---------------------------------------------------------------------

 Alpha  occ. eigenvalues --   -7.16438  -7.16428  -0.58172  -0.56527  -0.36484
 Alpha  occ. eigenvalues --   -0.21787  -0.21787
 Alpha virt. eigenvalues --   -0.09672  -0.07933  -0.07933   0.02515   0.02631
 Alpha virt. eigenvalues --    0.06684   0.06684   0.07678   0.07678   0.07993
 Alpha virt. eigenvalues --    0.13029   0.20447   0.23256   0.36786   0.37950

  Beta  occ. eigenvalues --   -7.16154  -7.16150  -0.55139  -0.54475  -0.33801
  Beta virt. eigenvalues --   -0.06297  -0.06297  -0.04732  -0.02080  -0.02080
  Beta virt. eigenvalues --    0.00579   0.02744   0.05540   0.07806   0.07806
  Beta virt. eigenvalues --    0.09851   0.10476   0.10476   0.21202   0.24499

 Mulliken charges and spin densities:
               1          2
     1  B   -0.126446   1.042023
     2  B   -0.126446   1.042023
     3  H    0.126446  -0.042023
     4  H    0.126446  -0.042023
 Sum of Mulliken charges =  -0.00000   2.00000

 Dipole moment (field-independent basis, Debye):
    X=              0.0000    Y=              0.0000    Z=              0.0000  Tot=              0.0000
 Quadrupole moment (field-independent basis, Debye-Ang):
   XX=             -9.5255   YY=            -16.8974   ZZ=            -16.8974
   XY=             -0.0063   XZ=             -0.0000   YZ=              0.0000

 1\1\GINC-NODE06\FOpt\UM062X\6-311+G(d,p)\B2H2(3)\SZHAO\21-Apr-2025\0\\
 #p opt UM062X/6-311+G** nosymm int=superfine\\Title Card Required\\0,3
 \B,-1.32841047,0.,0.\B,1.32841047,0.,0.\H,-2.5097530211,-0.0000807833,
 -0.000000033\H,2.5097530211,0.0000807834,0.000000033\\Version=ES64L-G1
 6RevA.03\HF=-50.5152277\S2=2.010779\S2-1=0.\S2A=2.000035\RMSD=4.800e-0
 9\RMSF=5.830e-05\Dipole=0.,0.,0.\Quadrupole=3.6538705,-1.8269185,-1.82
 6952,-0.0046486,-0.0000019,0.\PG=C*V [C*(H1B1B1H1)]\\@

 Normal termination of Gaussian 16 at Mon Apr 21 17:28:14 2025.
