 Gaussian 16, Revision A.03,
 Gaussian 16:  ES64L-G16RevA.03 25-Dec-2016

 --------------------------------------------
 #p opt UM062X/6-311+G** nosymm int=superfine
 --------------------------------------------

 -------------------
 Title Card Required
 -------------------
 Symbolic Z-matrix:
 Charge =  0 Multiplicity = 1

 SCF Done:  E(UM062X) =  -51.9429866441     A.U. after    8 cycles
 SCF Done:  E(UM062X) =  -51.9441187550     A.U. after    8 cycles
 SCF Done:  E(UM062X) =  -51.9444794419     A.U. after    9 cycles
 SCF Done:  E(UM062X) =  -51.9444708535     A.U. after    8 cycles
 SCF Done:  E(UM062X) =  -51.9444877447     A.U. after    8 cycles
 SCF Done:  E(UM062X) =  -51.9376976920     A.U. after    9 cycles
 SCF Done:  E(UM062X) =  -51.9448190099     A.U. after    9 cycles
 SCF Done:  E(UM062X) =  -51.9457771871     A.U. after   10 cycles
 SCF Done:  E(UM062X) =  -51.9035106052     A.U. after   12 cycles
 SCF Done:  E(UM062X) =  -51.9471309498     A.U. after   10 cycles
 SCF Done:  E(UM062X) =  -51.9422797280     A.U. after   11 cycles
 SCF Done:  E(UM062X) =  -51.9477272734     A.U. after   10 cycles
 SCF Done:  E(UM062X) =  -51.9477407798     A.U. after    8 cycles
 SCF Done:  E(UM062X) =  -51.9477418788     A.U. after    8 cycles
 SCF Done:  E(UM062X) =  -51.9477420764     A.U. after    6 cycles
 SCF Done:  E(UM062X) =  -51.9477421915     A.U. after    7 cycles
 Optimization completed.
    -- Stationary point found.

                          Input orientation:
 ---------------------------------------------------------------------
 Center     Atomic      Atomic             Coordinates (Angstroms)
 Number     Number       Type             X           Y           Z
 ---------------------------------------------------------------------
      1          5           0       -1.145607    0.000000    0.000000
      2          5           0        1.145607    0.000000    0.000000
      3          1           0       -1.714591   -0.738337   -0.733697
      4          1           0        1.714319    0.733752   -0.738498
      5          1           0       -1.713707    0.738595    0.734146
      6          1           0        1.713975   -0.733596    0.738927
 ---------------------------------------------------------------------

 Alpha  occ. eigenvalues --   -7.08149  -7.08139  -0.58263  -0.54799  -0.42091
 Alpha  occ. eigenvalues --   -0.42090  -0.29495
 Alpha virt. eigenvalues --   -0.03565  -0.03563   0.02321   0.02663   0.04940
 Alpha virt. eigenvalues --    0.04940   0.06967   0.07613   0.07614   0.10179
 Alpha virt. eigenvalues --    0.12121   0.16003   0.19360   0.21387   0.21389

  Beta  occ. eigenvalues --   -7.08149  -7.08139  -0.58263  -0.54799  -0.42091
  Beta  occ. eigenvalues --   -0.42090  -0.29495
  Beta virt. eigenvalues --   -0.03565  -0.03563   0.02321   0.02663   0.04940
  Beta virt. eigenvalues --    0.04940   0.06967   0.07613   0.07614   0.10179
  Beta virt. eigenvalues --    0.12121   0.16003   0.19360   0.21387   0.21389

 Mulliken charges and spin densities:
               1          2
     1  B   -0.030763   0.000000
     2  B   -0.030762  -0.000000
     3  H    0.015388   0.000000
     4  H    0.015384  -0.000000
     5  H    0.015374   0.000000
     6  H    0.015379  -0.000000
 Sum of Mulliken charges =  -0.00000   0.00000

 Dipole moment (field-independent basis, Debye):
    X=              0.0000    Y=             -0.0000    Z=             -0.0000  Tot=              0.0000
 Quadrupole moment (field-independent basis, Debye-Ang):
   XX=            -16.3833   YY=            -15.0753   ZZ=            -15.0765
   XY=             -0.0000   XZ=             -0.0001   YZ=             -0.0000

 Normal termination of Gaussian 16 at Mon Apr 21 17:06:55 2025.
