 Gaussian 16, Revision A.03,
 Gaussian 16:  ES64L-G16RevA.03 25-Dec-2016

 --------------------------------------------
 #p opt UM062X/6-311+G** nosymm int=superfine
 --------------------------------------------

 -------------------
 Title Card Required
 -------------------
 Symbolic Z-matrix:
 Charge =  1 Multiplicity = 2

 SCF Done:  E(UM062X) =  -580.947239016     A.U. after   11 cycles
 SCF Done:  E(UM062X) =  -580.947436506     A.U. after    8 cycles
 SCF Done:  E(UM062X) =  -580.947499838     A.U. after   10 cycles
 SCF Done:  E(UM062X) =  -580.947284299     A.U. after   10 cycles
 SCF Done:  E(UM062X) =  -580.947481048     A.U. after   10 cycles
 SCF Done:  E(UM062X) =  -580.947498892     A.U. after    9 cycles
 SCF Done:  E(UM062X) =  -580.947499888     A.U. after    7 cycles
 SCF Done:  E(UM062X) =  -580.947502774     A.U. after    9 cycles
 SCF Done:  E(UM062X) =  -580.947502801     A.U. after    6 cycles
 Optimization completed.
    -- Stationary point found.

                          Input orientation:
 ---------------------------------------------------------------------
 Center     Atomic      Atomic             Coordinates (Angstroms)
 Number     Number       Type             X           Y           Z
 ---------------------------------------------------------------------
      1         14           0       -1.366295    0.000000    0.000000
      2         14           0        1.366295    0.000000    0.000000
      3          1           0       -2.064616   -1.290292   -0.000097
      4          1           0        2.064615    1.290292    0.001144
      5          1           0       -2.064619    1.290290    0.000180
      6          1           0        2.064620   -1.290290   -0.001074
 ---------------------------------------------------------------------

 Alpha  occ. eigenvalues --  -67.26551 -67.26551  -5.80944  -5.80943  -4.12609
 Alpha  occ. eigenvalues --   -4.12607  -4.11897  -4.11887  -4.11775  -4.11774
 Alpha  occ. eigenvalues --   -0.83223  -0.79049  -0.64518  -0.63333  -0.55738
 Alpha  occ. eigenvalues --   -0.44392
 Alpha virt. eigenvalues --   -0.29319  -0.24438  -0.14900  -0.13459  -0.11276
 Alpha virt. eigenvalues --   -0.11026  -0.09323  -0.08955  -0.08067  -0.07321
 Alpha virt. eigenvalues --   -0.06967  -0.05722  -0.01484   0.02982   0.11107

  Beta  occ. eigenvalues --  -67.26261 -67.26261  -5.80860  -5.80859  -4.11897
  Beta  occ. eigenvalues --   -4.11896  -4.11833  -4.11820  -4.11669  -4.11668
  Beta  occ. eigenvalues --   -0.81211  -0.77642  -0.64451  -0.63428  -0.55033
  Beta virt. eigenvalues --   -0.29900  -0.24152  -0.22107  -0.15009  -0.14275
  Beta virt. eigenvalues --   -0.12033  -0.11051  -0.09271  -0.09134  -0.07625
  Beta virt. eigenvalues --   -0.06917  -0.06662  -0.03885  -0.03040   0.02837

 Mulliken charges and spin densities:
               1          2
     1  Si   0.435638   0.553836
     2  Si   0.435637   0.553836
     3  H    0.032181  -0.026918
     4  H    0.032181  -0.026918
     5  H    0.032181  -0.026918
     6  H    0.032181  -0.026918
 Sum of Mulliken charges =   1.00000   1.00000

 Dipole moment (field-independent basis, Debye):
    X=             -0.0000    Y=             -0.0000    Z=             -0.0000  Tot=              0.0000
 Quadrupole moment (field-independent basis, Debye-Ang):
   XX=            -10.7529   YY=            -23.5592   ZZ=            -24.3567
   XY=             -0.0000   XZ=              0.0000   YZ=              0.0004

 Normal termination of Gaussian 16 at Mon Apr 21 20:24:11 2025.
