 Gaussian 16, Revision A.03,
 Gaussian 16:  ES64L-G16RevA.03 25-Dec-2016

 --------------------------------------------
 #p opt UM062X/6-311+G** nosymm int=superfine
 --------------------------------------------

 -------------------
 Title Card Required
 -------------------
 Symbolic Z-matrix:
 Charge =  1 Multiplicity = 2

 SCF Done:  E(UM062X) =  -92.5740288208     A.U. after   60 cycles
 SCF Done:  E(UM062X) =  -92.5743543107     A.U. after   46 cycles
 Optimization completed.
    -- Stationary point found.

                          Input orientation:
 ---------------------------------------------------------------------
 Center     Atomic      Atomic             Coordinates (Angstroms)
 Number     Number       Type             X           Y           Z
 ---------------------------------------------------------------------
      1          6           0       -1.951540    0.000000    0.000000
      2          7           0        1.951540    0.000000    0.000000
      3          1           0       -3.068707    0.000000    0.000000
 ---------------------------------------------------------------------

 Alpha  occ. eigenvalues --  -15.20808 -10.97952  -1.16332  -0.99028  -0.71405
 Alpha  occ. eigenvalues --   -0.68314  -0.65533
 Alpha virt. eigenvalues --   -0.41752  -0.34325  -0.32846  -0.13727  -0.09895
 Alpha virt. eigenvalues --   -0.07831  -0.07093  -0.04191  -0.02185  -0.01873
 Alpha virt. eigenvalues --   -0.01641   0.06802   0.25563   0.35135   0.35374

  Beta  occ. eigenvalues --  -15.18231 -10.98322  -1.04623  -1.01177  -0.66732
  Beta  occ. eigenvalues --   -0.50257
  Beta virt. eigenvalues --   -0.42937  -0.38340  -0.36177  -0.33623  -0.13511
  Beta virt. eigenvalues --   -0.10249  -0.08367  -0.07983  -0.04731  -0.02649
  Beta virt. eigenvalues --   -0.02114  -0.01645   0.05065   0.26188   0.34731

 Mulliken charges and spin densities:
               1          2
     1  C    0.308533  -0.461272
     2  N    0.446843   1.446299
     3  H    0.244624   0.014973
 Sum of Mulliken charges =   1.00000   1.00000

 Dipole moment (field-independent basis, Debye):
    X=             -3.1868    Y=             -0.0000    Z=              0.0000  Tot=              3.1868
 Quadrupole moment (field-independent basis, Debye-Ang):
   XX=             18.3257   YY=            -11.1382   ZZ=             -9.5327
   XY=             -0.0000   XZ=             -0.0000   YZ=             -0.4231

 Normal termination of Gaussian 16 at Mon Apr 21 18:38:12 2025.
