 Gaussian 16, Revision A.03,
 Gaussian 16:  ES64L-G16RevA.03 25-Dec-2016

 --------------------------------------------
 #p opt UM062X/6-311+G** nosymm int=superfine
 --------------------------------------------

 -------------------
 Title Card Required
 -------------------
 Symbolic Z-matrix:
 Charge =  0 Multiplicity = 1

 SCF Done:  E(UM062X) =  -94.2542199346     A.U. after   12 cycles
 SCF Done:  E(UM062X) =  -94.2576832855     A.U. after   11 cycles
 SCF Done:  E(UM062X) =  -94.2594996287     A.U. after   16 cycles
 SCF Done:  E(UM062X) =  -94.2599448705     A.U. after   16 cycles
 SCF Done:  E(UM062X) =  -94.2611975420     A.U. after   16 cycles
 SCF Done:  E(UM062X) =  -94.2620923603     A.U. after   19 cycles
 SCF Done:  E(UM062X) =  -94.2620807701     A.U. after   17 cycles
 SCF Done:  E(UM062X) =  -94.2621241096     A.U. after   29 cycles
 SCF Done:  E(UM062X) =  -94.2621289218     A.U. after   17 cycles
 SCF Done:  E(UM062X) =  -94.2621289771     A.U. after   16 cycles
 Optimization completed.
    -- Stationary point found.

                          Input orientation:
 ---------------------------------------------------------------------
 Center     Atomic      Atomic             Coordinates (Angstroms)
 Number     Number       Type             X           Y           Z
 ---------------------------------------------------------------------
      1          6           0       -1.681637    0.000000    0.000000
      2          7           0        1.681637    0.000000    0.000000
      3          1           0       -2.539470   -0.698284   -0.000487
      4          1           0        1.190211   -0.912227    0.001407
      5          1           0       -2.157341    0.997686   -0.000096
 ---------------------------------------------------------------------

 Alpha  occ. eigenvalues --  -14.80974 -10.63059  -0.87317  -0.77490  -0.49785
 Alpha  occ. eigenvalues --   -0.44232  -0.33540  -0.31706
 Alpha virt. eigenvalues --   -0.10384  -0.09977   0.01480   0.05336   0.07087
 Alpha virt. eigenvalues --    0.07733   0.12768   0.14122   0.16005   0.17368
 Alpha virt. eigenvalues --    0.18111   0.19455   0.24890   0.43309   0.46554

  Beta  occ. eigenvalues --  -14.80974 -10.63059  -0.87317  -0.77490  -0.49785
  Beta  occ. eigenvalues --   -0.44232  -0.33540  -0.31706
  Beta virt. eigenvalues --   -0.10384  -0.09977   0.01480   0.05336   0.07087
  Beta virt. eigenvalues --    0.07733   0.12768   0.14122   0.16005   0.17368
  Beta virt. eigenvalues --    0.18111   0.19455   0.24890   0.43309   0.46554

 Mulliken charges and spin densities:
               1          2
     1  C   -0.304345  -0.000000
     2  N   -0.206696   0.000000
     3  H    0.149715   0.000000
     4  H    0.212719  -0.000000
     5  H    0.148607  -0.000000
 Sum of Mulliken charges =   0.00000   0.00000

 Dipole moment (field-independent basis, Debye):
    X=             -3.3528    Y=             -1.0775    Z=              0.0015  Tot=              3.5217
 Quadrupole moment (field-independent basis, Debye-Ang):
   XX=            -10.0376   YY=            -12.7201   ZZ=            -14.9284
   XY=             -3.2172   XZ=              0.0045   YZ=             -0.0041

 Normal termination of Gaussian 16 at Mon Apr 21 18:27:01 2025.
