 Gaussian 16, Revision A.03,
 Gaussian 16:  ES64L-G16RevA.03 25-Dec-2016

 --------------------------------------------
 #p opt UM062X/6-311+G** nosymm int=superfine
 --------------------------------------------

 -------------------
 Title Card Required
 -------------------
 Symbolic Z-matrix:
 Charge =  1 Multiplicity = 2

 SCF Done:  E(UM062X) =  -79.3119523513     A.U. after   10 cycles
 SCF Done:  E(UM062X) =  -79.3138507016     A.U. after    9 cycles
 SCF Done:  E(UM062X) =  -79.3138779318     A.U. after    9 cycles
 Optimization completed.
    -- Stationary point found.

                          Input orientation:
 ---------------------------------------------------------------------
 Center     Atomic      Atomic             Coordinates (Angstroms)
 Number     Number       Type             X           Y           Z
 ---------------------------------------------------------------------
      1          6           0       -2.211342    0.000000    0.000000
      2          6           0        2.211342    0.000000    0.000000
      3          1           0        2.233166   -0.937332    0.542516
      4          1           0       -2.231156   -0.938424   -0.540692
      5          1           0        2.232299    0.938520    0.540487
      6          1           0        2.231243   -0.001172   -1.083041
      7          1           0       -2.233228    0.937442   -0.542324
      8          1           0       -2.232324    0.000953    1.083023
 ---------------------------------------------------------------------

 Alpha  occ. eigenvalues --  -10.82790 -10.82789  -1.01421  -1.01233  -0.72538
 Alpha  occ. eigenvalues --   -0.72537  -0.72493  -0.72493  -0.45896
 Alpha virt. eigenvalues --   -0.37899  -0.12266  -0.10013  -0.08976  -0.08976
 Alpha virt. eigenvalues --   -0.06188  -0.06188  -0.04458  -0.02493   0.00683
 Alpha virt. eigenvalues --    0.00686   0.01563   0.01565   0.02243   0.09203

  Beta  occ. eigenvalues --  -10.82562 -10.82562  -0.98753  -0.98671  -0.71996
  Beta  occ. eigenvalues --   -0.71995  -0.71945  -0.71944
  Beta virt. eigenvalues --   -0.31128  -0.26682  -0.17079  -0.10249  -0.10117
  Beta virt. eigenvalues --   -0.10115  -0.06116  -0.06116  -0.05803  -0.01520
  Beta virt. eigenvalues --    0.00635   0.00639   0.01809   0.01811   0.02265

 Mulliken charges and spin densities:
               1          2
     1  C   -0.233682   0.559752
     2  C   -0.233682   0.559753
     3  H    0.244582  -0.019912
     4  H    0.244546  -0.019913
     5  H    0.244564  -0.019916
     6  H    0.244536  -0.019925
     7  H    0.244583  -0.019912
     8  H    0.244554  -0.019928
 Sum of Mulliken charges =   1.00000   1.00000

 Dipole moment (field-independent basis, Debye):
    X=             -0.0000    Y=             -0.0000    Z=             -0.0000  Tot=              0.0000
 Quadrupole moment (field-independent basis, Debye-Ang):
   XX=             11.7596   YY=            -11.1226   ZZ=            -11.1227
   XY=             -0.0022   XZ=              0.0012   YZ=              0.0000

 Normal termination of Gaussian 16 at Sat Nov 16 16:12:17 2024.
