 Gaussian 16, Revision A.03,
 Gaussian 16:  ES64L-G16RevA.03 25-Dec-2016

 --------------------------------------------
 #p opt UM062X/6-311+G** nosymm int=superfine
 --------------------------------------------

 -------------------
 Title Card Required
 -------------------
 Symbolic Z-matrix:
 Charge =  1 Multiplicity = 2

 SCF Done:  E(UM062X) =  -579.736803281     A.U. after   18 cycles
 SCF Done:  E(UM062X) =  -579.734050000     A.U. after   17 cycles
 SCF Done:  E(UM062X) =  -579.736585324     A.U. after   17 cycles
 SCF Done:  E(UM062X) =  -579.737166143     A.U. after   13 cycles
 SCF Done:  E(UM062X) =  -579.737404886     A.U. after   16 cycles
 SCF Done:  E(UM062X) =  -579.737488787     A.U. after   16 cycles
 SCF Done:  E(UM062X) =  -579.737583319     A.U. after   16 cycles
 SCF Done:  E(UM062X) =  -579.737632061     A.U. after   16 cycles
 SCF Done:  E(UM062X) =  -579.737638491     A.U. after   13 cycles
 SCF Done:  E(UM062X) =  -579.737640202     A.U. after   12 cycles
 SCF Done:  E(UM062X) =  -579.737640285     A.U. after   12 cycles
 Optimization completed.
    -- Stationary point found.

                          Input orientation:
 ---------------------------------------------------------------------
 Center     Atomic      Atomic             Coordinates (Angstroms)
 Number     Number       Type             X           Y           Z
 ---------------------------------------------------------------------
      1         14           0       -1.252975    0.000000    0.000000
      2         14           0        1.252975    0.000000    0.000000
      3          1           0       -0.087043   -1.031729   -0.601708
      4          1           0        1.814310   -1.097886    0.844378
 ---------------------------------------------------------------------

 Alpha  occ. eigenvalues --  -67.31042 -67.26835  -5.85038  -5.81198  -4.16054
 Alpha  occ. eigenvalues --   -4.15793  -4.15645  -4.12508  -4.12218  -4.11757
 Alpha  occ. eigenvalues --   -0.87103  -0.72922  -0.59410  -0.54870  -0.48374
 Alpha virt. eigenvalues --   -0.31027  -0.27650  -0.18355  -0.15571  -0.13005
 Alpha virt. eigenvalues --   -0.09198  -0.09015  -0.08513  -0.08103  -0.06664
 Alpha virt. eigenvalues --   -0.05938  -0.05769  -0.01985   0.08185   0.12353

  Beta  occ. eigenvalues --  -67.30783 -67.26481  -5.84965  -5.81039  -4.15846
  Beta  occ. eigenvalues --   -4.15578  -4.15139  -4.12117  -4.11741  -4.11512
  Beta  occ. eigenvalues --   -0.85183  -0.71081  -0.58401  -0.53063
  Beta virt. eigenvalues --   -0.32624  -0.29706  -0.25653  -0.16741  -0.15497
  Beta virt. eigenvalues --   -0.14100  -0.09090  -0.08905  -0.08114  -0.07852
  Beta virt. eigenvalues --   -0.06385  -0.05554  -0.05030  -0.01827   0.08261

 Mulliken charges and spin densities:
               1          2
     1  Si   0.714028   0.429764
     2  Si   0.439134   0.587789
     3  H   -0.164411  -0.009250
     4  H    0.011249  -0.008304
 Sum of Mulliken charges =   1.00000   1.00000

 Dipole moment (field-independent basis, Debye):
    X=             -0.3019    Y=             -0.4932    Z=              0.1808  Tot=              0.6059
 Quadrupole moment (field-independent basis, Debye-Ang):
   XX=            -12.4621   YY=            -23.6125   ZZ=            -22.4875
   XY=             -0.2453   XZ=              0.2075   YZ=             -0.2715

 Normal termination of Gaussian 16 at Tue Apr 22 01:56:31 2025.
