 Gaussian 16, Revision A.03,
 Gaussian 16:  ES64L-G16RevA.03 25-Dec-2016

 ---------------------------------------------------
 #p UM062X/6-311+G** force int=superfine pop=saveNBO
 ---------------------------------------------------

 -------------------
 Title Card Required
 -------------------
 Symbolic Z-matrix:
 Charge =  0 Multiplicity = 1

                         Standard orientation:
 ---------------------------------------------------------------------
 Center     Atomic      Atomic             Coordinates (Angstroms)
 Number     Number       Type             X           Y           Z
 ---------------------------------------------------------------------
      1          8           0        0.000000    0.000000   -2.326757
      2         16           0        0.000000    0.000000    1.163379
 ---------------------------------------------------------------------

 SCF Done:  E(UM062X) =  -473.005362187     A.U. after   18 cycles

 Unable to determine electronic state:  an orbital has unidentified symmetry.
 Alpha  occ. eigenvalues --  -89.96188 -19.79255  -8.32235  -6.25028  -6.23439
 Alpha  occ. eigenvalues --   -6.23427  -1.08857  -0.76293  -0.47814  -0.47660
 Alpha  occ. eigenvalues --   -0.33540  -0.33515
 Alpha virt. eigenvalues --   -0.21721  -0.18587   0.04021   0.05304   0.05825
 Alpha virt. eigenvalues --    0.05925   0.14720   0.16378   0.17199   0.21969
 Alpha virt. eigenvalues --    0.35098   0.35186   0.35296   0.59555   0.78399

  Beta  occ. eigenvalues --  -89.96188 -19.79255  -8.32235  -6.25028  -6.23439
  Beta  occ. eigenvalues --   -6.23427  -1.08857  -0.76293  -0.47814  -0.47660
  Beta  occ. eigenvalues --   -0.33540  -0.33515
  Beta virt. eigenvalues --   -0.21721  -0.18587   0.04021   0.05304   0.05825
  Beta virt. eigenvalues --    0.05925   0.14720   0.16378   0.17199   0.21969
  Beta virt. eigenvalues --    0.35098   0.35186   0.35296   0.59555   0.78399

 Mulliken charges and spin densities:
               1          2
     1  O    0.000606   0.000000
     2  S   -0.000606   0.000000
 Sum of Mulliken charges =  -0.00000   0.00000

 Dipole moment (field-independent basis, Debye):
    X=              0.0000    Y=              0.0000    Z=              0.0023  Tot=              0.0023
 Quadrupole moment (field-independent basis, Debye-Ang):
   XX=            -21.1711   YY=            -18.9609   ZZ=            -15.5398
   XY=              0.0000   XZ=              0.0000   YZ=              0.0000

 Summary of Natural Population Analysis:

                                       Natural Population
                Natural  -----------------------------------------------
    Atom  No    Charge         Core      Valence    Rydberg      Total
 -----------------------------------------------------------------------
      O    1   -0.00014      1.00000     2.99994    0.00020     4.00014
      S    2    0.00014      4.99999     2.99945    0.00042     7.99986
 =======================================================================
   * Total *   -0.00000      5.99999     5.99939    0.00062    12.00000

 Normal termination of Gaussian 16 at Mon Apr 21 20:00:30 2025.
