 Gaussian 16, Revision A.03,
 Gaussian 16:  ES64L-G16RevA.03 25-Dec-2016

 --------------------------------------------
 #p opt UM062X/6-311+G** nosymm int=superfine
 --------------------------------------------

 -------------------
 Title Card Required
 -------------------
 Symbolic Z-matrix:
 Charge = -1 Multiplicity = 2

 SCF Done:  E(UM062X) =  -25.2813655359     A.U. after   13 cycles
 SCF Done:  E(UM062X) =  -25.2826885912     A.U. after   11 cycles
 SCF Done:  E(UM062X) =  -25.2827579334     A.U. after   11 cycles
 Optimization completed.
    -- Stationary point found.

                          Input orientation:
 ---------------------------------------------------------------------
 Center     Atomic      Atomic             Coordinates (Angstroms)
 Number     Number       Type             X           Y           Z
 ---------------------------------------------------------------------
      1          5           0       -0.709172    0.000025    0.000000
      2          1           0       -1.957415   -0.000929    0.000000
 ---------------------------------------------------------------------

 Alpha  occ. eigenvalues --   -6.84762  -0.29719  -0.04389   0.03890
 Alpha virt. eigenvalues --    0.15907   0.18686   0.21528   0.23111   0.24499
 Alpha virt. eigenvalues --    0.36390   0.55636   0.61851   0.62646   0.67790
 Alpha virt. eigenvalues --    0.75840   1.05961   1.06360   1.09678   1.10086

  Beta  occ. eigenvalues --   -6.84486  -0.27669  -0.02246
  Beta virt. eigenvalues --    0.13442   0.14460   0.15305   0.20375   0.24680
  Beta virt. eigenvalues --    0.25836   0.35705   0.54818   0.62724   0.62750
  Beta virt. eigenvalues --    0.68545   0.77312   1.07667   1.08960   1.12654

 Mulliken charges and spin densities:
               1          2
     1  B   -0.901172   1.030978
     2  H   -0.098828  -0.030978
 Sum of Mulliken charges =  -1.00000   1.00000

 Dipole moment (field-independent basis, Debye):
    X=              1.5870    Y=             -0.0015    Z=              0.0000  Tot=              1.5870
 Quadrupole moment (field-independent basis, Debye-Ang):
   XX=            -17.6740   YY=            -20.8624   ZZ=            -12.8078
   XY=              0.0033   XZ=              0.0000   YZ=             -0.0000

 Normal termination of Gaussian 16 at Wed Apr 16 07:00:47 2025.
