 Gaussian 16, Revision A.03,
 Gaussian 16:  ES64L-G16RevA.03 25-Dec-2016

 --------------------------------------------
 #p opt UM062X/6-311+G** nosymm int=superfine
 --------------------------------------------

 -------------------
 Title Card Required
 -------------------
 Symbolic Z-matrix:
 Charge =  1 Multiplicity = 2

 SCF Done:  E(UM062X) =  -379.296365306     A.U. after   26 cycles
 SCF Done:  E(UM062X) =  -379.297133506     A.U. after   28 cycles
 SCF Done:  E(UM062X) =  -379.297135041     A.U. after   12 cycles
 Optimization completed.
    -- Stationary point found.

                          Input orientation:
 ---------------------------------------------------------------------
 Center     Atomic      Atomic             Coordinates (Angstroms)
 Number     Number       Type             X           Y           Z
 ---------------------------------------------------------------------
      1          6           0       -2.044427    0.000000    0.000000
      2         15           0        2.044427    0.000000    0.000000
      3          1           0       -3.165444    0.000000    0.000000
 ---------------------------------------------------------------------

 Alpha  occ. eigenvalues --  -78.31797 -10.97310  -7.13350  -5.25494  -5.25142
 Alpha  occ. eigenvalues --   -5.24096  -0.99312  -0.85282  -0.65285  -0.50928
 Alpha  occ. eigenvalues --   -0.45315
 Alpha virt. eigenvalues --   -0.38202  -0.34778  -0.33597  -0.13237  -0.09576
 Alpha virt. eigenvalues --   -0.08478  -0.08138  -0.06542  -0.05440  -0.05064
 Alpha virt. eigenvalues --   -0.02504   0.00096   0.16650   0.17176   0.17423

  Beta  occ. eigenvalues --  -78.31043 -10.97270  -7.13123  -5.24928  -5.23952
  Beta  occ. eigenvalues --   -5.23209  -0.99099  -0.80100  -0.65114  -0.44308
  Beta virt. eigenvalues --   -0.37125  -0.34613  -0.32416  -0.28612  -0.13643
  Beta virt. eigenvalues --   -0.10706  -0.08320  -0.08125  -0.06417  -0.05096
  Beta virt. eigenvalues --   -0.04683  -0.02772  -0.00151   0.14703   0.15474

 Mulliken charges and spin densities:
               1          2
     1  C    0.267267   0.050138
     2  P    0.491727   0.951808
     3  H    0.241006  -0.001946
 Sum of Mulliken charges =   1.00000   1.00000

 Dipole moment (field-independent basis, Debye):
    X=             -2.2609    Y=              0.0000    Z=              0.0000  Tot=              2.2609
 Quadrupole moment (field-independent basis, Debye-Ang):
   XX=             15.5594   YY=            -19.3183   ZZ=            -17.3201
   XY=              0.0000   XZ=             -0.0000   YZ=             -1.2286

 Normal termination of Gaussian 16 at Mon Apr 21 19:28:28 2025.
