 Gaussian 16, Revision A.03,
 Gaussian 16:  ES64L-G16RevA.03 25-Dec-2016

 --------------------------------------------
 #p opt UM062X/6-311+G** nosymm int=superfine
 --------------------------------------------

 -------------------
 Title Card Required
 -------------------
 Symbolic Z-matrix:
 Charge =  0 Multiplicity = 1

 SCF Done:  E(UM062X) =  -114.230573124     A.U. after   13 cycles
 SCF Done:  E(UM062X) =  -114.233099471     A.U. after   11 cycles
 SCF Done:  E(UM062X) =  -114.234255927     A.U. after   11 cycles
 SCF Done:  E(UM062X) =  -114.234283282     A.U. after   10 cycles
 SCF Done:  E(UM062X) =  -114.234283278     A.U. after   10 cycles
 SCF Done:  E(UM062X) =  -114.234283093     A.U. after   11 cycles
 SCF Done:  E(UM062X) =  -114.234283325     A.U. after   10 cycles
 Optimization completed.
    -- Stationary point found.

                          Input orientation:
 ---------------------------------------------------------------------
 Center     Atomic      Atomic             Coordinates (Angstroms)
 Number     Number       Type             X           Y           Z
 ---------------------------------------------------------------------
      1          6           0       -0.973311    0.000000    0.000000
      2          8           0        0.973311    0.000000    0.000000
      3          1           0       -1.417337   -0.986504   -0.000003
      4          1           0       -1.417338    0.986504   -0.000002
 ---------------------------------------------------------------------

 Alpha  occ. eigenvalues --  -19.67408 -10.71666  -0.99266  -0.81106  -0.59118
 Alpha  occ. eigenvalues --   -0.41351  -0.36029  -0.34309
 Alpha virt. eigenvalues --   -0.13829  -0.03802   0.01523   0.04147   0.06629
 Alpha virt. eigenvalues --    0.07176   0.13003   0.18368   0.21313   0.23840
 Alpha virt. eigenvalues --    0.26481   0.33103   0.39533   0.45526   0.53502

  Beta  occ. eigenvalues --  -19.67408 -10.71666  -0.99266  -0.81106  -0.59118
  Beta  occ. eigenvalues --   -0.41351  -0.36029  -0.34309
  Beta virt. eigenvalues --   -0.13829  -0.03802   0.01523   0.04147   0.06629
  Beta virt. eigenvalues --    0.07176   0.13003   0.18368   0.21313   0.23840
  Beta virt. eigenvalues --    0.26481   0.33103   0.39533   0.45526   0.53502

 Mulliken charges and spin densities:
               1          2
     1  C   -0.113234   0.000008
     2  O   -0.313499  -0.000007
     3  H    0.213367  -0.000000
     4  H    0.213367  -0.000000
 Sum of Mulliken charges =  -0.00000  -0.00000

 Dipole moment (field-independent basis, Debye):
    X=             -4.5898    Y=             -0.0000    Z=             -0.0000  Tot=              4.5898
 Quadrupole moment (field-independent basis, Debye-Ang):
   XX=            -10.3856   YY=            -11.4379   ZZ=            -13.1905
   XY=             -0.0000   XZ=              0.0000   YZ=              0.0000

 Normal termination of Gaussian 16 at Mon Apr 21 18:43:55 2025.
