 Gaussian 16, Revision A.03,
 Gaussian 16:  ES64L-G16RevA.03 25-Dec-2016

 ---------------------------------------------------
 #p UM062X/6-311+G** force int=superfine pop=saveNBO
 ---------------------------------------------------

 -------------------
 Title Card Required
 -------------------
 Symbolic Z-matrix:
 Charge =  0 Multiplicity = 1

                         Standard orientation:
 ---------------------------------------------------------------------
 Center     Atomic      Atomic             Coordinates (Angstroms)
 Number     Number       Type             X           Y           Z
 ---------------------------------------------------------------------
      1         16           0        0.000000    0.000000    1.050200
      2         16           0        0.000000    0.000000   -1.050200
 ---------------------------------------------------------------------

 SCF Done:  E(UM062X) =  -796.290407974     A.U. after    9 cycles

 Unable to determine electronic state:  partially filled degenerate orbitals.
 Alpha  occ. eigenvalues --  -89.96936 -89.96936  -8.32930  -8.32922  -6.25021
 Alpha  occ. eigenvalues --   -6.25019  -6.24929  -6.24906  -6.24158  -6.24157
 Alpha  occ. eigenvalues --   -0.88180  -0.70997  -0.43809  -0.39709  -0.38860
 Alpha  occ. eigenvalues --   -0.29081
 Alpha virt. eigenvalues --   -0.16580  -0.02708   0.03170   0.04611   0.05141
 Alpha virt. eigenvalues --    0.05392   0.07055   0.07677   0.08251   0.14846
 Alpha virt. eigenvalues --    0.30019   0.32971   0.33225   0.34452   0.36262

  Beta  occ. eigenvalues --  -89.96936 -89.96936  -8.32930  -8.32922  -6.25021
  Beta  occ. eigenvalues --   -6.25019  -6.24929  -6.24906  -6.24158  -6.24157
  Beta  occ. eigenvalues --   -0.88180  -0.70997  -0.43809  -0.39709  -0.38860
  Beta  occ. eigenvalues --   -0.29081
  Beta virt. eigenvalues --   -0.16580  -0.02708   0.03170   0.04611   0.05141
  Beta virt. eigenvalues --    0.05392   0.07055   0.07677   0.08251   0.14846
  Beta virt. eigenvalues --    0.30019   0.32971   0.33225   0.34452   0.36262

 Mulliken charges and spin densities:
               1          2
     1  S   -0.000000   0.000000
     2  S   -0.000000   0.000000
 Sum of Mulliken charges =  -0.00000   0.00000

 Dipole moment (field-independent basis, Debye):
    X=             -0.0000    Y=             -0.0000    Z=              0.0000  Tot=              0.0000
 Quadrupole moment (field-independent basis, Debye-Ang):
   XX=            -24.1930   YY=            -29.2673   ZZ=            -24.6412
   XY=              0.0000   XZ=              0.0000   YZ=              0.0000

 Summary of Natural Population Analysis:

                                       Natural Population
                Natural  -----------------------------------------------
    Atom  No    Charge         Core      Valence    Rydberg      Total
 -----------------------------------------------------------------------
      S    1   -0.00000      4.99990     2.98562    0.01448     8.00000
      S    2   -0.00000      4.99990     2.98562    0.01448     8.00000
 =======================================================================
   * Total *   -0.00000      9.99980     5.97123    0.02896    16.00000

 Normal termination of Gaussian 16 at Mon Apr 21 20:08:44 2025.
