 Gaussian 16, Revision A.03,
 Gaussian 16:  ES64L-G16RevA.03 25-Dec-2016

 ---------------------------------------------------
 #p UM062X/6-311+G** force int=superfine pop=saveNBO
 ---------------------------------------------------

 -------------------
 Title Card Required
 -------------------
 Symbolic Z-matrix:
 Charge =  0 Multiplicity = 1

                         Standard orientation:
 ---------------------------------------------------------------------
 Center     Atomic      Atomic             Coordinates (Angstroms)
 Number     Number       Type             X           Y           Z
 ---------------------------------------------------------------------
      1         16           0        0.000000    0.000000    1.775200
      2         16           0        0.000000    0.000000   -1.775200
 ---------------------------------------------------------------------

 SCF Done:  E(UM062X) =  -796.064824314     A.U. after    9 cycles

 Unable to determine electronic state:  partially filled degenerate orbitals.
 Alpha  occ. eigenvalues --  -89.99117 -89.99117  -8.34857  -8.34857  -6.26890
 Alpha  occ. eigenvalues --   -6.26890  -6.26870  -6.26870  -6.26038  -6.26038
 Alpha  occ. eigenvalues --   -0.78589  -0.77240  -0.35182  -0.34264  -0.34116
 Alpha  occ. eigenvalues --   -0.31843
 Alpha virt. eigenvalues --   -0.23212  -0.20904   0.03044   0.03735   0.04829
 Alpha virt. eigenvalues --    0.05309   0.07144   0.07464   0.07601   0.12864
 Alpha virt. eigenvalues --    0.31888   0.32768   0.33751   0.33768   0.36281

  Beta  occ. eigenvalues --  -89.99117 -89.99117  -8.34857  -8.34857  -6.26890
  Beta  occ. eigenvalues --   -6.26890  -6.26870  -6.26870  -6.26038  -6.26038
  Beta  occ. eigenvalues --   -0.78589  -0.77240  -0.35182  -0.34264  -0.34116
  Beta  occ. eigenvalues --   -0.31843
  Beta virt. eigenvalues --   -0.23212  -0.20904   0.03044   0.03735   0.04829
  Beta virt. eigenvalues --    0.05309   0.07144   0.07464   0.07601   0.12864
  Beta virt. eigenvalues --    0.31888   0.32768   0.33751   0.33768   0.36281

 Mulliken charges and spin densities:
               1          2
     1  S    0.000000  -0.000000
     2  S    0.000000  -0.000000
 Sum of Mulliken charges =   0.00000  -0.00000

 Dipole moment (field-independent basis, Debye):
    X=              0.0000    Y=              0.0000    Z=             -0.0000  Tot=              0.0000
 Quadrupole moment (field-independent basis, Debye-Ang):
   XX=            -25.4158   YY=            -30.3723   ZZ=            -22.4889
   XY=              0.0000   XZ=             -0.0000   YZ=              0.0000

 Summary of Natural Population Analysis:

                                       Natural Population
                Natural  -----------------------------------------------
    Atom  No    Charge         Core      Valence    Rydberg      Total
 -----------------------------------------------------------------------
      S    1   -0.00000      5.00000     2.99917    0.00083     8.00000
      S    2   -0.00000      5.00000     2.99917    0.00083     8.00000
 =======================================================================
   * Total *   -0.00000      9.99999     5.99834    0.00167    16.00000

 Normal termination of Gaussian 16 at Mon Apr 21 20:08:23 2025.
