 Gaussian 16, Revision A.03,
 Gaussian 16:  ES64L-G16RevA.03 25-Dec-2016

 --------------------------------------------
 #p opt UM062X/6-311+G** nosymm int=superfine
 --------------------------------------------

 -------------------
 Title Card Required
 -------------------
 Symbolic Z-matrix:
 Charge =  0 Multiplicity = 1

 SCF Done:  E(UM062X) =  -438.458550009     A.U. after   14 cycles
 SCF Done:  E(UM062X) =  -438.472285406     A.U. after   13 cycles
 SCF Done:  E(UM062X) =  -438.479780789     A.U. after   16 cycles
 SCF Done:  E(UM062X) =  -438.479847552     A.U. after   11 cycles
 SCF Done:  E(UM062X) =  -438.479853290     A.U. after   11 cycles
 SCF Done:  E(UM062X) =  -438.479867335     A.U. after   15 cycles
 SCF Done:  E(UM062X) =  -438.479892484     A.U. after   10 cycles
 Optimization completed.
    -- Stationary point found.

                          Input orientation:
 ---------------------------------------------------------------------
 Center     Atomic      Atomic             Coordinates (Angstroms)
 Number     Number       Type             X           Y           Z
 ---------------------------------------------------------------------
      1          6           0       -2.360220    0.000000    0.000000
      2         16           0        2.360220    0.000000    0.000000
      3          1           0        2.346146   -1.344499    0.005874
      4          1           0       -2.310841    1.080030    0.004351
      5          1           0       -2.397343   -0.533474   -0.939485
      6          1           0       -2.397610   -0.541022    0.935147
 ---------------------------------------------------------------------

 Alpha  occ. eigenvalues --  -89.87215 -10.65139  -8.23555  -6.15591  -6.15538
 Alpha  occ. eigenvalues --   -6.14984  -0.83749  -0.75201  -0.55835  -0.55729
 Alpha  occ. eigenvalues --   -0.41751  -0.27688  -0.25297
 Alpha virt. eigenvalues --   -0.17890   0.00709   0.03529   0.03744   0.05383
 Alpha virt. eigenvalues --    0.07386   0.08174   0.08389   0.10605   0.13092
 Alpha virt. eigenvalues --    0.15208   0.15217   0.19582   0.35170   0.38018

  Beta  occ. eigenvalues --  -89.87215 -10.65139  -8.23555  -6.15591  -6.15538
  Beta  occ. eigenvalues --   -6.14984  -0.83749  -0.75201  -0.55835  -0.55729
  Beta  occ. eigenvalues --   -0.41751  -0.27688  -0.25297
  Beta virt. eigenvalues --   -0.17890   0.00709   0.03529   0.03744   0.05383
  Beta virt. eigenvalues --    0.07386   0.08174   0.08389   0.10605   0.13092
  Beta virt. eigenvalues --    0.15208   0.15217   0.19582   0.35170   0.38018

 Mulliken charges and spin densities:
               1          2
     1  C   -0.357646   0.000000
     2  S   -0.298727  -0.000000
     3  H    0.050264   0.000000
     4  H    0.203913  -0.000000
     5  H    0.201117  -0.000000
     6  H    0.201079  -0.000000
 Sum of Mulliken charges =  -0.00000  -0.00000

 Dipole moment (field-independent basis, Debye):
    X=             -5.9154    Y=             -0.9596    Z=              0.0043  Tot=              5.9928
 Quadrupole moment (field-independent basis, Debye-Ang):
   XX=            -21.2372   YY=            -19.6201   ZZ=            -23.6586
   XY=             -2.2904   XZ=              0.0107   YZ=             -0.0178

 Normal termination of Gaussian 16 at Mon Apr 21 19:40:47 2025.
