 Gaussian 16, Revision A.03,
 Gaussian 16:  ES64L-G16RevA.03 25-Dec-2016

 ---------------------------------------
 #p UM062X/6-311+G** force int=superfine
 ---------------------------------------

 -------------------
 Title Card Required
 -------------------
 Symbolic Z-matrix:
 Charge =  0 Multiplicity = 1

                         Standard orientation:
 ---------------------------------------------------------------------
 Center     Atomic      Atomic             Coordinates (Angstroms)
 Number     Number       Type             X           Y           Z
 ---------------------------------------------------------------------
      1          6           0        0.000000    1.000937    0.000000
      2          6           0       -0.000000   -1.000937    0.000000
      3          1           0       -0.972092    1.467172    0.000000
      4          1           0        0.972100    1.467164    0.000000
      5          1           0        0.972092   -1.467172    0.000000
      6          1           0       -0.972100   -1.467164    0.000000
 ---------------------------------------------------------------------

 SCF Done:  E(UM062X) =  -78.3780559543     A.U. after    8 cycles

 The electronic state is 1-AG.
 Alpha  occ. eigenvalues --  -10.60991 -10.60976  -0.77559  -0.71408  -0.52985
 Alpha  occ. eigenvalues --   -0.49736  -0.38065  -0.26202
 Alpha virt. eigenvalues --   -0.06455   0.01866   0.03362   0.05390   0.07341
 Alpha virt. eigenvalues --    0.09084   0.09663   0.09874   0.11407   0.15357
 Alpha virt. eigenvalues --    0.16463   0.20729   0.21261   0.28175   0.39730

  Beta  occ. eigenvalues --  -10.60991 -10.60976  -0.77559  -0.71408  -0.52985
  Beta  occ. eigenvalues --   -0.49736  -0.38065  -0.26202
  Beta virt. eigenvalues --   -0.06455   0.01866   0.03362   0.05390   0.07341
  Beta virt. eigenvalues --    0.09084   0.09663   0.09874   0.11407   0.15357
  Beta virt. eigenvalues --    0.16463   0.20729   0.21261   0.28175   0.39730

 Mulliken charges and spin densities:
               1          2
     1  C   -0.359681   0.000000
     2  C   -0.359681   0.000000
     3  H    0.179841  -0.000000
     4  H    0.179841  -0.000000
     5  H    0.179841  -0.000000
     6  H    0.179841  -0.000000
 Sum of Mulliken charges =  -0.00000   0.00000

 Dipole moment (field-independent basis, Debye):
    X=             -0.0000    Y=              0.0000    Z=              0.0000  Tot=              0.0000
 Quadrupole moment (field-independent basis, Debye-Ang):
   XX=            -12.0939   YY=            -11.2586   ZZ=            -18.1409
   XY=             -0.0000   XZ=              0.0000   YZ=              0.0000

 Normal termination of Gaussian 16 at Tue Nov 19 11:49:38 2024.
