 Gaussian 16, Revision A.03,
 Gaussian 16:  ES64L-G16RevA.03 25-Dec-2016

 --------------------------------------------
 #p opt UM062X/6-311+G** nosymm int=superfine
 --------------------------------------------

 -------------------
 Title Card Required
 -------------------
 Symbolic Z-matrix:
 Charge =  0 Multiplicity = 1

 SCF Done:  E(UM062X) =  -581.188203186     A.U. after   10 cycles
 SCF Done:  E(UM062X) =  -581.188671466     A.U. after    8 cycles
 SCF Done:  E(UM062X) =  -581.188820819     A.U. after    9 cycles
 SCF Done:  E(UM062X) =  -581.188804305     A.U. after    8 cycles
 SCF Done:  E(UM062X) =  -581.188821093     A.U. after    9 cycles
 SCF Done:  E(UM062X) =  -581.188822552     A.U. after    9 cycles
 SCF Done:  E(UM062X) =  -581.188822331     A.U. after    8 cycles
 SCF Done:  E(UM062X) =  -581.190045013     A.U. after   11 cycles
 SCF Done:  E(UM062X) =  -581.193515138     A.U. after   12 cycles
 SCF Done:  E(UM062X) =  -581.205998199     A.U. after   12 cycles
 SCF Done:  E(UM062X) =  -581.217673690     A.U. after   12 cycles
 SCF Done:  E(UM062X) =  -581.223470996     A.U. after   11 cycles
 SCF Done:  E(UM062X) =  -581.224047715     A.U. after   14 cycles
 SCF Done:  E(UM062X) =  -581.224050642     A.U. after    8 cycles
 SCF Done:  E(UM062X) =  -581.224050826     A.U. after    7 cycles
 Optimization completed.
    -- Stationary point found.

                          Input orientation:
 ---------------------------------------------------------------------
 Center     Atomic      Atomic             Coordinates (Angstroms)
 Number     Number       Type             X           Y           Z
 ---------------------------------------------------------------------
      1         14           0       -1.412518    0.000000    0.000000
      2         14           0        1.412518    0.000000    0.000000
      3          1           0       -1.959087   -1.154510   -0.781046
      4          1           0        1.960327    1.154537    0.780095
      5          1           0       -1.958924    1.154228   -0.781576
      6          1           0        1.960382   -1.154191    0.780569
 ---------------------------------------------------------------------

 Alpha  occ. eigenvalues --  -67.02373 -67.02364  -5.57017  -5.57009  -3.88280
 Alpha  occ. eigenvalues --   -3.88271  -3.87854  -3.87845  -3.87770  -3.87761
 Alpha  occ. eigenvalues --   -0.60141  -0.56856  -0.40914  -0.39792  -0.33331
 Alpha  occ. eigenvalues --   -0.25746
 Alpha virt. eigenvalues --   -0.10000  -0.01334   0.02263   0.02953   0.04510
 Alpha virt. eigenvalues --    0.05242   0.05242   0.05274   0.05623   0.06540
 Alpha virt. eigenvalues --    0.08713   0.09139   0.12396   0.14884   0.27966

  Beta  occ. eigenvalues --  -67.02373 -67.02364  -5.57017  -5.57009  -3.88280
  Beta  occ. eigenvalues --   -3.88271  -3.87854  -3.87845  -3.87770  -3.87761
  Beta  occ. eigenvalues --   -0.60141  -0.56856  -0.40914  -0.39792  -0.33331
  Beta  occ. eigenvalues --   -0.25746
  Beta virt. eigenvalues --   -0.10000  -0.01334   0.02263   0.02953   0.04510
  Beta virt. eigenvalues --    0.05242   0.05242   0.05274   0.05623   0.06540
  Beta virt. eigenvalues --    0.08713   0.09139   0.12396   0.14884   0.27966

 Mulliken charges and spin densities:
               1          2
     1  Si   0.209602  -0.000000
     2  Si   0.209932   0.000000
     3  H   -0.104886  -0.000000
     4  H   -0.104880   0.000000
     5  H   -0.104887  -0.000000
     6  H   -0.104881   0.000000
 Sum of Mulliken charges =  -0.00000   0.00000

 Dipole moment (field-independent basis, Debye):
    X=              0.0031    Y=             -0.0000    Z=             -0.0002  Tot=              0.0031
 Quadrupole moment (field-independent basis, Debye-Ang):
   XX=            -25.9952   YY=            -31.1292   ZZ=            -33.0326
   XY=             -0.0004   XZ=             -2.0103   YZ=             -0.0003

 Normal termination of Gaussian 16 at Mon Apr 21 20:32:29 2025.
