 Gaussian 16, Revision A.03,
 Gaussian 16:  ES64L-G16RevA.03 25-Dec-2016

 ---------------------------------------
 #p UM062X/6-311+G** force int=superfine
 ---------------------------------------

 -------------------
 Title Card Required
 -------------------
 Symbolic Z-matrix:
 Charge =  1 Multiplicity = 2

                         Standard orientation:
 ---------------------------------------------------------------------
 Center     Atomic      Atomic             Coordinates (Angstroms)
 Number     Number       Type             X           Y           Z
 ---------------------------------------------------------------------
      1          7           0        0.000000    0.000000    1.655391
      2          7           0        0.000000    0.000000   -1.655391
 ---------------------------------------------------------------------

 SCF Done:  E(UM062X) =  -108.353936812     A.U. after   11 cycles

 Unable to determine electronic state:  partially filled degenerate orbitals.
 Alpha  occ. eigenvalues --  -15.31773 -15.31769  -1.20374  -1.19533  -0.66304
 Alpha  occ. eigenvalues --   -0.64937  -0.63680
 Alpha virt. eigenvalues --   -0.57525  -0.54876  -0.53799  -0.12892  -0.08205
 Alpha virt. eigenvalues --   -0.08149  -0.07995  -0.03819  -0.02907  -0.02716
 Alpha virt. eigenvalues --    0.03907   0.48550   0.50713   0.51933   0.52577

  Beta  occ. eigenvalues --  -15.31283 -15.31280  -1.16630  -1.15872  -0.63216
  Beta  occ. eigenvalues --   -0.61901
  Beta virt. eigenvalues --   -0.53071  -0.51887  -0.44488  -0.43954  -0.13888
  Beta virt. eigenvalues --   -0.08949  -0.08446  -0.08067  -0.04107  -0.03216
  Beta virt. eigenvalues --   -0.02951   0.02597   0.48668   0.51751   0.52101

 Mulliken charges and spin densities:
               1          2
     1  N    0.500000   0.500000
     2  N    0.500000   0.500000
 Sum of Mulliken charges =   1.00000   1.00000

 Dipole moment (field-independent basis, Debye):
    X=              0.0000    Y=              0.0000    Z=             -0.0000  Tot=              0.0000
 Quadrupole moment (field-independent basis, Debye-Ang):
   XX=            -10.0144   YY=             -8.5684   ZZ=              4.7405
   XY=             -0.0000   XZ=             -0.0000   YZ=             -0.0000

 Optimization completed.
    -- Stationary point found.
 Normal termination of Gaussian 16 at Wed Feb 26 14:02:00 2025.
