 Gaussian 16, Revision A.03,
 Gaussian 16:  ES64L-G16RevA.03 25-Dec-2016

 --------------------------------------------
 #p opt UM062X/6-311+G** nosymm int=superfine
 --------------------------------------------

 -------------------
 Title Card Required
 -------------------
 Symbolic Z-matrix:
 Charge =  1 Multiplicity = 2

 SCF Done:  E(UM062X) =  -79.3579927800     A.U. after   10 cycles
 SCF Done:  E(UM062X) =  -79.3585195281     A.U. after    8 cycles
 SCF Done:  E(UM062X) =  -79.3585218228     A.U. after    7 cycles
 Optimization completed.
    -- Stationary point found.

                          Input orientation:
 ---------------------------------------------------------------------
 Center     Atomic      Atomic             Coordinates (Angstroms)
 Number     Number       Type             X           Y           Z
 ---------------------------------------------------------------------
      1          6           0       -1.226938    0.000000    0.000000
      2          6           0        1.226938    0.000000    0.000000
      3          1           0        1.311455   -0.935548    0.541425
      4          1           0       -1.310712   -0.936658   -0.539619
      5          1           0        1.311167    0.936723    0.539437
      6          1           0        1.310694   -0.001128   -1.080981
      7          1           0       -1.311479    0.935610   -0.541315
      8          1           0       -1.311125    0.000942    1.080948
 ---------------------------------------------------------------------

 Alpha  occ. eigenvalues --  -10.85737 -10.85731  -1.06788  -1.02432  -0.76573
 Alpha  occ. eigenvalues --   -0.76573  -0.74247  -0.74246  -0.57659
 Alpha virt. eigenvalues --   -0.31029  -0.15419  -0.10671  -0.10671  -0.09984
 Alpha virt. eigenvalues --   -0.06423  -0.06231  -0.06231  -0.04122  -0.04120
 Alpha virt. eigenvalues --   -0.02739   0.01631   0.01633   0.05290   0.07352

  Beta  occ. eigenvalues --  -10.85536 -10.85536  -1.03513  -0.99920  -0.75807
  Beta  occ. eigenvalues --   -0.75807  -0.73646  -0.73645
  Beta virt. eigenvalues --   -0.35141  -0.22318  -0.15677  -0.11089  -0.11088
  Beta virt. eigenvalues --   -0.09400  -0.06573  -0.06573  -0.06426  -0.03917
  Beta virt. eigenvalues --   -0.03914  -0.01984   0.02086   0.02087   0.05710

 Mulliken charges and spin densities:
               1          2
     1  C   -0.290705   0.572104
     2  C   -0.290705   0.572104
     3  H    0.263583  -0.024042
     4  H    0.263551  -0.024029
     5  H    0.263569  -0.024037
     6  H    0.263554  -0.024024
     7  H    0.263584  -0.024043
     8  H    0.263570  -0.024033
 Sum of Mulliken charges =   1.00000   1.00000

 Dipole moment (field-independent basis, Debye):
    X=             -0.0000    Y=             -0.0000    Z=             -0.0000  Tot=              0.0001
 Quadrupole moment (field-independent basis, Debye-Ang):
   XX=             -4.0964   YY=            -10.9145   ZZ=            -10.9147
   XY=             -0.0008   XZ=              0.0004   YZ=             -0.0000

 Normal termination of Gaussian 16 at Wed Nov 13 12:40:29 2024.
