 Gaussian 16, Revision A.03,
 Gaussian 16:  ES64L-G16RevA.03 25-Dec-2016

 --------------------------------------------
 #p opt UM062X/6-311+G** nosymm int=superfine
 --------------------------------------------

 -------------------
 Title Card Required
 -------------------
 Symbolic Z-matrix:
 Charge =  1 Multiplicity = 2

 SCF Done:  E(UM062X) =  -92.6697716342     A.U. after   93 cycles
 SCF Done:  E(UM062X) =  -92.6700233836     A.U. after   23 cycles
 SCF Done:  E(UM062X) =  -92.6700246071     A.U. after   12 cycles
 Optimization completed.
    -- Stationary point found.

                          Input orientation:
 ---------------------------------------------------------------------
 Center     Atomic      Atomic             Coordinates (Angstroms)
 Number     Number       Type             X           Y           Z
 ---------------------------------------------------------------------
      1          6           0       -1.201539    0.000000    0.000000
      2          7           0        1.201539    0.000000    0.000000
      3          1           0       -2.317059    0.000000    0.000000
 ---------------------------------------------------------------------

 Alpha  occ. eigenvalues --  -15.17824 -11.01259  -1.19837  -0.99361  -0.71587
 Alpha  occ. eigenvalues --   -0.71527  -0.69895
 Alpha virt. eigenvalues --   -0.43799  -0.36783  -0.33071  -0.15367  -0.10467
 Alpha virt. eigenvalues --   -0.09138  -0.08097  -0.04513  -0.02125  -0.01892
 Alpha virt. eigenvalues --    0.01921   0.08726   0.25104   0.30668   0.30711

  Beta  occ. eigenvalues --  -15.14193 -11.03571  -1.08224  -0.98959  -0.77109
  Beta  occ. eigenvalues --   -0.66494
  Beta virt. eigenvalues --   -0.42528  -0.32017  -0.31786  -0.31701  -0.15205
  Beta virt. eigenvalues --   -0.11636  -0.09336  -0.09198  -0.06049  -0.00933
  Beta virt. eigenvalues --   -0.00846   0.00413   0.05159   0.24041   0.29700

 Mulliken charges and spin densities:
               1          2
     1  C    0.277346  -1.528250
     2  N    0.370093   2.608750
     3  H    0.352561  -0.080499
 Sum of Mulliken charges =   1.00000   1.00000

 Dipole moment (field-independent basis, Debye):
    X=             -3.7878    Y=              0.0000    Z=             -0.0000  Tot=              3.7878
 Quadrupole moment (field-independent basis, Debye-Ang):
   XX=              3.7657   YY=            -10.4766   ZZ=             -9.5293
   XY=             -0.0000   XZ=              0.0000   YZ=              0.6799

 Normal termination of Gaussian 16 at Mon Apr 21 18:35:18 2025.
