 Gaussian 16, Revision A.03,
 Gaussian 16:  ES64L-G16RevA.03 25-Dec-2016

 --------------------------------------------
 #p opt UM062X/6-311+G** nosymm int=superfine
 --------------------------------------------

 -------------------
 Title Card Required
 -------------------
 Symbolic Z-matrix:
 Charge =  0 Multiplicity = 1

 SCF Done:  E(UM062X) =  -79.7901877940     A.U. after    8 cycles
 SCF Done:  E(UM062X) =  -79.7922681392     A.U. after    8 cycles
 SCF Done:  E(UM062X) =  -79.7923781887     A.U. after    7 cycles
 Optimization completed.
    -- Stationary point found.

                          Input orientation:
 ---------------------------------------------------------------------
 Center     Atomic      Atomic             Coordinates (Angstroms)
 Number     Number       Type             X           Y           Z
 ---------------------------------------------------------------------
      1          6           0       -0.816995    0.000000    0.000000
      2          6           0        0.817079    0.000000    0.000000
      3          1           0        1.188496   -0.886740    0.513101
      4          1           0       -1.188413   -0.887738   -0.511369
      5          1           0        1.188497    0.887738    0.511368
      6          1           0        1.188452   -0.000999   -1.024503
      7          1           0       -1.188412    0.886740   -0.513102
      8          1           0       -1.188370    0.000998    1.024503
 ---------------------------------------------------------------------

 Alpha  occ. eigenvalues --  -10.52799 -10.52774  -0.83033  -0.70623  -0.49586
 Alpha  occ. eigenvalues --   -0.49586  -0.41371  -0.41371  -0.40377
 Alpha virt. eigenvalues --    0.02208   0.03975   0.05561   0.05561   0.08715
 Alpha virt. eigenvalues --    0.08715   0.09032   0.13779   0.18563   0.18564
 Alpha virt. eigenvalues --    0.21401   0.21401   0.24097   0.24170   0.27937

  Beta  occ. eigenvalues --  -10.52799 -10.52774  -0.83033  -0.70623  -0.49586
  Beta  occ. eigenvalues --   -0.49586  -0.41371  -0.41371  -0.40377
  Beta virt. eigenvalues --    0.02208   0.03975   0.05561   0.05561   0.08715
  Beta virt. eigenvalues --    0.08715   0.09032   0.13779   0.18563   0.18564
  Beta virt. eigenvalues --    0.21401   0.21401   0.24097   0.24170   0.27937

 Mulliken charges and spin densities:
               1          2
     1  C   -0.478381   0.000000
     2  C   -0.478381  -0.000000
     3  H    0.159460   0.000000
     4  H    0.159461  -0.000000
     5  H    0.159461   0.000000
     6  H    0.159460   0.000000
     7  H    0.159460  -0.000000
     8  H    0.159460  -0.000000
 Sum of Mulliken charges =  -0.00000  -0.00000

 Dipole moment (field-independent basis, Debye):
    X=              0.0000    Y=             -0.0000    Z=             -0.0000  Tot=              0.0000
 Quadrupole moment (field-independent basis, Debye-Ang):
   XX=            -15.6264   YY=            -14.9576   ZZ=            -14.9576
   XY=              0.0000   XZ=              0.0001   YZ=             -0.0000

 Normal termination of Gaussian 16 at Tue Nov 19 11:56:03 2024.
