 Gaussian 16, Revision A.03,
 Gaussian 16:  ES64L-G16RevA.03 25-Dec-2016

 --------------------------------------------
 #p opt UM062X/6-311+G** nosymm int=superfine
 --------------------------------------------

 -------------------
 Title Card Required
 -------------------
 Symbolic Z-matrix:
 Charge =  0 Multiplicity = 1

 SCF Done:  E(UM062X) =  -111.640215600     A.U. after   16 cycles
 SCF Done:  E(UM062X) =  -111.652317649     A.U. after   16 cycles
 SCF Done:  E(UM062X) =  -111.660064560     A.U. after   15 cycles
 SCF Done:  E(UM062X) =  -111.661842423     A.U. after   14 cycles
 SCF Done:  E(UM062X) =  -111.663064413     A.U. after   13 cycles
 SCF Done:  E(UM062X) =  -111.663606839     A.U. after   13 cycles
 SCF Done:  E(UM062X) =  -111.664114176     A.U. after   14 cycles
 SCF Done:  E(UM062X) =  -111.664224584     A.U. after   12 cycles
 SCF Done:  E(UM062X) =  -111.664269565     A.U. after   11 cycles
 SCF Done:  E(UM062X) =  -111.664321103     A.U. after   11 cycles
 SCF Done:  E(UM062X) =  -111.664331626     A.U. after   11 cycles
 SCF Done:  E(UM062X) =  -111.664332271     A.U. after   10 cycles
 SCF Done:  E(UM062X) =  -111.664332279     A.U. after   10 cycles
 Optimization completed.
    -- Stationary point found.

                          Input orientation:
 ---------------------------------------------------------------------
 Center     Atomic      Atomic             Coordinates (Angstroms)
 Number     Number       Type             X           Y           Z
 ---------------------------------------------------------------------
      1          7           0       -1.536540    0.000000    0.000000
      2          7           0        1.536540    0.000000    0.000000
      3          1           0       -1.447014   -0.816412   -0.617378
      4          1           0        1.446891    0.411801   -0.937064
      5          1           0       -1.446955   -0.412080    0.936949
      6          1           0        1.446902    0.816575    0.617144
 ---------------------------------------------------------------------

 Alpha  occ. eigenvalues --  -14.80533 -14.80531  -0.95269  -0.94372  -0.55217
 Alpha  occ. eigenvalues --   -0.54628  -0.40932  -0.40191  -0.30383
 Alpha virt. eigenvalues --   -0.16124   0.04546   0.06560   0.08700   0.11475
 Alpha virt. eigenvalues --    0.12846   0.13878   0.15902   0.15925   0.18938
 Alpha virt. eigenvalues --    0.19939   0.26815   0.27129   0.51316   0.51552

  Beta  occ. eigenvalues --  -14.80533 -14.80531  -0.95269  -0.94372  -0.55217
  Beta  occ. eigenvalues --   -0.54628  -0.40932  -0.40191  -0.30383
  Beta virt. eigenvalues --   -0.16124   0.04546   0.06560   0.08700   0.11475
  Beta virt. eigenvalues --    0.12846   0.13878   0.15902   0.15925   0.18938
  Beta virt. eigenvalues --    0.19939   0.26815   0.27129   0.51316   0.51552

 Mulliken charges and spin densities:
               1          2
     1  N   -0.498642   0.000000
     2  N   -0.498596  -0.000000
     3  H    0.249306  -0.000000
     4  H    0.249305   0.000000
     5  H    0.249315  -0.000000
     6  H    0.249312   0.000000
 Sum of Mulliken charges =  -0.00000  -0.00000

 Dipole moment (field-independent basis, Debye):
    X=             -0.0002    Y=             -0.0002    Z=             -0.0006  Tot=              0.0006
 Quadrupole moment (field-independent basis, Debye-Ang):
   XX=            -15.9480   YY=            -14.2574   ZZ=            -11.4730
   XY=              6.4792   XZ=             -1.6863   YZ=              0.7774

 Normal termination of Gaussian 16 at Thu May 15 14:48:55 2025.
