 Gaussian 16, Revision A.03,
 Gaussian 16:  ES64L-G16RevA.03 25-Dec-2016

 --------------------------------------------
 #p opt UM062X/6-311+G** nosymm int=superfine
 --------------------------------------------

 -------------------
 Title Card Required
 -------------------
 Symbolic Z-matrix:
 Charge =  0 Multiplicity = 1

 SCF Done:  E(UM062X) =  -438.674228379     A.U. after   11 cycles
 SCF Done:  E(UM062X) =  -438.674310694     A.U. after    9 cycles
 SCF Done:  E(UM062X) =  -438.674314314     A.U. after    8 cycles
 SCF Done:  E(UM062X) =  -438.674314451     A.U. after    8 cycles
 Optimization completed.
    -- Stationary point found.

                          Input orientation:
 ---------------------------------------------------------------------
 Center     Atomic      Atomic             Coordinates (Angstroms)
 Number     Number       Type             X           Y           Z
 ---------------------------------------------------------------------
      1          6           0       -0.935220    0.000000    0.000000
      2         16           0        0.935220    0.000000    0.000000
      3          1           0        1.075533   -1.333836   -0.002111
      4          1           0       -1.230906    1.046684    0.002215
      5          1           0       -1.313412   -0.482917   -0.897448
      6          1           0       -1.313378   -0.486658    0.895440
 ---------------------------------------------------------------------

 Alpha  occ. eigenvalues --  -89.89082 -10.57027  -8.25630  -6.17768  -6.17557
 Alpha  occ. eigenvalues --   -6.17116  -0.86701  -0.73473  -0.51533  -0.50012
 Alpha  occ. eigenvalues --   -0.44900  -0.39056  -0.29587
 Alpha virt. eigenvalues --    0.01174   0.03181   0.04747   0.05307   0.06926
 Alpha virt. eigenvalues --    0.08117   0.08845   0.09401   0.12747   0.14122
 Alpha virt. eigenvalues --    0.17913   0.17950   0.26096   0.33145   0.34775

  Beta  occ. eigenvalues --  -89.89082 -10.57027  -8.25630  -6.17768  -6.17557
  Beta  occ. eigenvalues --   -6.17116  -0.86701  -0.73473  -0.51533  -0.50012
  Beta  occ. eigenvalues --   -0.44900  -0.39056  -0.29587
  Beta virt. eigenvalues --    0.01174   0.03181   0.04747   0.05307   0.06926
  Beta virt. eigenvalues --    0.08117   0.08845   0.09401   0.12747   0.14122
  Beta virt. eigenvalues --    0.17913   0.17950   0.26096   0.33145   0.34775

 Mulliken charges and spin densities:
               1          2
     1  C   -0.615368   0.000000
     2  S   -0.025853  -0.000000
     3  H    0.064153  -0.000000
     4  H    0.191594  -0.000000
     5  H    0.192745  -0.000000
     6  H    0.192730  -0.000000
 Sum of Mulliken charges =  -0.00000  -0.00000

 Dipole moment (field-independent basis, Debye):
    X=             -1.5041    Y=             -0.9248    Z=             -0.0014  Tot=              1.7657
 Quadrupole moment (field-independent basis, Debye-Ang):
   XX=            -21.2976   YY=            -19.2238   ZZ=            -22.9205
   XY=             -1.5770   XZ=             -0.0026   YZ=              0.0059

 Normal termination of Gaussian 16 at Mon Apr 21 19:29:22 2025.
