 Gaussian 16, Revision A.03,
 Gaussian 16:  ES64L-G16RevA.03 25-Dec-2016

 --------------------------------------------
 #p opt UM062X/6-311+G** nosymm int=superfine
 --------------------------------------------

 -------------------
 Title Card Required
 -------------------
 Symbolic Z-matrix:
 Charge =  1 Multiplicity = 2

 SCF Done:  E(UM062X) =  -76.9007431651     A.U. after    9 cycles
 SCF Done:  E(UM062X) =  -76.9008865100     A.U. after    9 cycles
 Optimization completed.
    -- Stationary point found.

                          Input orientation:
 ---------------------------------------------------------------------
 Center     Atomic      Atomic             Coordinates (Angstroms)
 Number     Number       Type             X           Y           Z
 ---------------------------------------------------------------------
      1          6           0       -0.627556    0.000000    0.000000
      2          6           0        0.627556    0.000000    0.000000
      3          1           0       -1.708386   -0.000000   -0.000000
      4          1           0        1.708386    0.000000   -0.000000
 ---------------------------------------------------------------------

 Alpha  occ. eigenvalues --  -10.94392 -10.94189  -1.22440  -0.97219  -0.89517
 Alpha  occ. eigenvalues --   -0.72618  -0.69929
 Alpha virt. eigenvalues --   -0.27683  -0.25674  -0.15605  -0.14501  -0.11525
 Alpha virt. eigenvalues --   -0.10299  -0.10043  -0.06437  -0.04794  -0.04357
 Alpha virt. eigenvalues --    0.02276   0.04563   0.15556   0.18777   0.29344

  Beta  occ. eigenvalues --  -10.94144 -10.93966  -1.17656  -0.95630  -0.88968
  Beta  occ. eigenvalues --   -0.67437
  Beta virt. eigenvalues --   -0.46111  -0.24068  -0.21266  -0.15628  -0.14694
  Beta virt. eigenvalues --   -0.11647  -0.10561  -0.10258  -0.05936  -0.04212
  Beta virt. eigenvalues --   -0.03594   0.02037   0.04803   0.16107   0.19623

 Mulliken charges and spin densities:
               1          2
     1  C    0.189495   0.519345
     2  C    0.189495   0.519345
     3  H    0.310505  -0.019345
     4  H    0.310505  -0.019345
 Sum of Mulliken charges =   1.00000   1.00000

 Dipole moment (field-independent basis, Debye):
    X=              0.0000    Y=             -0.0000    Z=             -0.0000  Tot=              0.0000
 Quadrupole moment (field-independent basis, Debye-Ang):
   XX=             -0.4374   YY=             -9.6462   ZZ=            -11.4593
   XY=              0.0000   XZ=              0.0000   YZ=              0.0253

 Normal termination of Gaussian 16 at Tue Nov 19 13:01:27 2024.
