 Gaussian 16, Revision A.03,
 Gaussian 16:  ES64L-G16RevA.03 25-Dec-2016

 --------------------------------------------
 #p opt UM062X/6-311+G** nosymm int=superfine
 --------------------------------------------

 -------------------
 Title Card Required
 -------------------
 Symbolic Z-matrix:
 Charge =  0 Multiplicity = 1

 SCF Done:  E(UM062X) =  -380.928295576     A.U. after   18 cycles
 SCF Done:  E(UM062X) =  -380.931186840     A.U. after   17 cycles
 SCF Done:  E(UM062X) =  -380.932154626     A.U. after   14 cycles
 SCF Done:  E(UM062X) =  -380.932190049     A.U. after   17 cycles
 SCF Done:  E(UM062X) =  -380.932426547     A.U. after   15 cycles
 SCF Done:  E(UM062X) =  -380.932466523     A.U. after   17 cycles
 SCF Done:  E(UM062X) =  -380.932476616     A.U. after   16 cycles
 SCF Done:  E(UM062X) =  -380.932477151     A.U. after   25 cycles
 SCF Done:  E(UM062X) =  -380.932477365     A.U. after   15 cycles
 SCF Done:  E(UM062X) =  -380.932477674     A.U. after   15 cycles
 SCF Done:  E(UM062X) =  -380.932482622     A.U. after   15 cycles
 SCF Done:  E(UM062X) =  -380.932482991     A.U. after   16 cycles
 SCF Done:  E(UM062X) =  -380.932483042     A.U. after   13 cycles
 SCF Done:  E(UM062X) =  -380.932483674     A.U. after   19 cycles
 SCF Done:  E(UM062X) =  -380.927548136     A.U. after   18 cycles
 SCF Done:  E(UM062X) =  -380.932456856     A.U. after   18 cycles
 SCF Done:  E(UM062X) =  -380.932480809     A.U. after   13 cycles
 SCF Done:  E(UM062X) =  -380.932482983     A.U. after   22 cycles
 SCF Done:  E(UM062X) =  -380.932486341     A.U. after   20 cycles
 SCF Done:  E(UM062X) =  -380.932486518     A.U. after   14 cycles
 Optimization completed.
    -- Stationary point found.

                          Input orientation:
 ---------------------------------------------------------------------
 Center     Atomic      Atomic             Coordinates (Angstroms)
 Number     Number       Type             X           Y           Z
 ---------------------------------------------------------------------
      1          6           0       -2.105452    0.000000    0.000000
      2         15           0        2.105452    0.000000    0.000000
      3          1           0       -2.835093   -0.832302    0.024439
      4          1           0        1.829898   -1.392359    0.070291
      5          1           0       -2.756686    0.894854   -0.025373
 ---------------------------------------------------------------------

 Alpha  occ. eigenvalues --  -78.04564 -10.62181  -6.86827  -4.98839  -4.98066
 Alpha  occ. eigenvalues --   -4.97605  -0.76855  -0.65661  -0.48933  -0.38337
 Alpha  occ. eigenvalues --   -0.32805  -0.24467
 Alpha virt. eigenvalues --   -0.11358  -0.09365   0.01442   0.03733   0.04617
 Alpha virt. eigenvalues --    0.06040   0.06930   0.07328   0.08781   0.10464
 Alpha virt. eigenvalues --    0.13504   0.17349   0.18857   0.31270   0.33235

  Beta  occ. eigenvalues --  -78.04564 -10.62181  -6.86827  -4.98839  -4.98066
  Beta  occ. eigenvalues --   -4.97605  -0.76855  -0.65661  -0.48933  -0.38337
  Beta  occ. eigenvalues --   -0.32805  -0.24467
  Beta virt. eigenvalues --   -0.11358  -0.09365   0.01442   0.03733   0.04617
  Beta virt. eigenvalues --    0.06040   0.06930   0.07328   0.08781   0.10464
  Beta virt. eigenvalues --    0.13504   0.17349   0.18857   0.31270   0.33235

 Mulliken charges and spin densities:
               1          2
     1  C   -0.284510   0.000000
     2  P    0.041265   0.000000
     3  H    0.138217   0.000000
     4  H   -0.033027  -0.000000
     5  H    0.138055   0.000000
 Sum of Mulliken charges =  -0.00000  -0.00000

 Dipole moment (field-independent basis, Debye):
    X=             -2.5224    Y=             -0.5768    Z=              0.0322  Tot=              2.5877
 Quadrupole moment (field-independent basis, Debye-Ang):
   XX=            -12.3582   YY=            -21.3519   ZZ=            -25.2532
   XY=             -2.1380   XZ=              0.1030   YZ=             -0.2120

 Normal termination of Gaussian 16 at Mon Apr 21 19:24:04 2025.
