 Gaussian 16, Revision A.03,
 Gaussian 16:  ES64L-G16RevA.03 25-Dec-2016

 --------------------------------------------
 #p opt UM062X/6-311+G** nosymm int=superfine
 --------------------------------------------

 -------------------
 Title Card Required
 -------------------
 Symbolic Z-matrix:
 Charge =  0 Multiplicity = 1

 SCF Done:  E(UM062X) =  -78.1905192367     A.U. after    8 cycles
 SCF Done:  E(UM062X) =  -78.1915149496     A.U. after    9 cycles
 SCF Done:  E(UM062X) =  -78.1920621961     A.U. after    9 cycles
 SCF Done:  E(UM062X) =  -78.1920627330     A.U. after    7 cycles
 Optimization completed.
    -- Stationary point found.

                          Input orientation:
 ---------------------------------------------------------------------
 Center     Atomic      Atomic             Coordinates (Angstroms)
 Number     Number       Type             X           Y           Z
 ---------------------------------------------------------------------
      1          6           0       -1.410595    0.000000    0.000000
      2          6           0        1.410595    0.000000    0.000000
      3          1           0       -1.797963   -1.005432   -0.000000
      4          1           0       -1.797956    1.005434   -0.000000
      5          1           0        1.797963    1.005432    0.000000
      6          1           0        1.797956   -1.005434    0.000000
 ---------------------------------------------------------------------

 Alpha  occ. eigenvalues --  -10.63159 -10.63155  -0.75783  -0.74217  -0.53871
 Alpha  occ. eigenvalues --   -0.53268  -0.29930  -0.23123
 Alpha virt. eigenvalues --   -0.11522  -0.08758   0.03390   0.05187   0.05256
 Alpha virt. eigenvalues --    0.06907   0.09365   0.10396   0.11078   0.13841
 Alpha virt. eigenvalues --    0.16221   0.18437   0.21495   0.26940   0.40223

  Beta  occ. eigenvalues --  -10.63159 -10.63155  -0.75783  -0.74217  -0.53871
  Beta  occ. eigenvalues --   -0.53268  -0.29930  -0.23123
  Beta virt. eigenvalues --   -0.11522  -0.08758   0.03390   0.05187   0.05256
  Beta virt. eigenvalues --    0.06907   0.09365   0.10396   0.11078   0.13841
  Beta virt. eigenvalues --    0.16221   0.18437   0.21495   0.26940   0.40223

 Mulliken charges and spin densities:
               1          2
     1  C   -0.387381   0.000000
     2  C   -0.387381  -0.000000
     3  H    0.193691  -0.000000
     4  H    0.193691  -0.000000
     5  H    0.193691   0.000000
     6  H    0.193691   0.000000
 Sum of Mulliken charges =  -0.00000  -0.00000

 Dipole moment (field-independent basis, Debye):
    X=              0.0000    Y=              0.0000    Z=              0.0000  Tot=              0.0000
 Quadrupole moment (field-independent basis, Debye-Ang):
   XX=             -9.6596   YY=            -11.8105   ZZ=            -19.1169
   XY=              0.0000   XZ=              0.0000   YZ=             -0.0000

 Normal termination of Gaussian 16 at Tue Dec  3 11:08:19 2024.
