 Gaussian 16, Revision A.03,
 Gaussian 16:  ES64L-G16RevA.03 25-Dec-2016

 --------------------------------------------
 #p opt UM062X/6-311+G** nosymm int=superfine
 --------------------------------------------

 -------------------
 Title Card Required
 -------------------
 Symbolic Z-matrix:
 Charge =  0 Multiplicity = 1

 SCF Done:  E(UM062X) =  -380.930645810     A.U. after   18 cycles
 SCF Done:  E(UM062X) =  -380.933341039     A.U. after   16 cycles
 SCF Done:  E(UM062X) =  -380.934293027     A.U. after   14 cycles
 SCF Done:  E(UM062X) =  -380.934347624     A.U. after   18 cycles
 SCF Done:  E(UM062X) =  -380.934473133     A.U. after   15 cycles
 SCF Done:  E(UM062X) =  -380.934599857     A.U. after   19 cycles
 SCF Done:  E(UM062X) =  -380.934648776     A.U. after   20 cycles
 SCF Done:  E(UM062X) =  -380.934650231     A.U. after   15 cycles
 SCF Done:  E(UM062X) =  -380.934651048     A.U. after   17 cycles
 SCF Done:  E(UM062X) =  -380.934652249     A.U. after   22 cycles
 SCF Done:  E(UM062X) =  -380.934653481     A.U. after   13 cycles
 SCF Done:  E(UM062X) =  -380.934654092     A.U. after   15 cycles
 SCF Done:  E(UM062X) =  -380.934655001     A.U. after   30 cycles
 SCF Done:  E(UM062X) =  -380.934657394     A.U. after   15 cycles
 SCF Done:  E(UM062X) =  -380.934657363     A.U. after   18 cycles
 SCF Done:  E(UM062X) =  -380.934658577     A.U. after   14 cycles
 SCF Done:  E(UM062X) =  -380.934658603     A.U. after    7 cycles
 SCF Done:  E(UM062X) =  -380.934658728     A.U. after   21 cycles
 SCF Done:  E(UM062X) =  -380.934658802     A.U. after   15 cycles
 SCF Done:  E(UM062X) =  -380.934658795     A.U. after   14 cycles
 Optimization completed.
    -- Stationary point found.

                          Input orientation:
 ---------------------------------------------------------------------
 Center     Atomic      Atomic             Coordinates (Angstroms)
 Number     Number       Type             X           Y           Z
 ---------------------------------------------------------------------
      1          6           0       -1.980452    0.000000    0.000000
      2         15           0        1.980452    0.000000    0.000000
      3          1           0       -2.697833   -0.841718    0.032502
      4          1           0        1.706353   -1.393235   -0.055691
      5          1           0       -2.635371    0.891215   -0.028061
 ---------------------------------------------------------------------

 Alpha  occ. eigenvalues --  -78.04356 -10.62628  -6.86606  -4.98615  -4.97847
 Alpha  occ. eigenvalues --   -4.97390  -0.77162  -0.65412  -0.49366  -0.38106
 Alpha  occ. eigenvalues --   -0.33152  -0.24242
 Alpha virt. eigenvalues --   -0.11068  -0.09662   0.01358   0.03849   0.04671
 Alpha virt. eigenvalues --    0.06119   0.06929   0.07435   0.08772   0.10739
 Alpha virt. eigenvalues --    0.13512   0.17250   0.18700   0.31268   0.33481

  Beta  occ. eigenvalues --  -78.04356 -10.62628  -6.86606  -4.98615  -4.97847
  Beta  occ. eigenvalues --   -4.97390  -0.77162  -0.65412  -0.49366  -0.38106
  Beta  occ. eigenvalues --   -0.33152  -0.24242
  Beta virt. eigenvalues --   -0.11068  -0.09662   0.01358   0.03849   0.04671
  Beta virt. eigenvalues --    0.06119   0.06929   0.07435   0.08772   0.10739
  Beta virt. eigenvalues --    0.13512   0.17250   0.18700   0.31268   0.33481

 Mulliken charges and spin densities:
               1          2
     1  C   -0.290909   0.000000
     2  P    0.039118  -0.000000
     3  H    0.142274   0.000000
     4  H   -0.032693  -0.000000
     5  H    0.142210  -0.000000
 Sum of Mulliken charges =  -0.00000  -0.00000

 Dipole moment (field-independent basis, Debye):
    X=             -2.6551    Y=             -0.5916    Z=             -0.0199  Tot=              2.7203
 Quadrupole moment (field-independent basis, Debye-Ang):
   XX=            -12.8058   YY=            -21.3446   ZZ=            -25.3272
   XY=             -2.0108   XZ=             -0.0641   YZ=              0.2016

 Normal termination of Gaussian 16 at Mon Apr 21 19:22:35 2025.
