 Gaussian 16, Revision A.03,
 Gaussian 16:  ES64L-G16RevA.03 25-Dec-2016

 --------------------------------------------
 #p opt UM062X/6-311+G** nosymm int=superfine
 --------------------------------------------

 -------------------
 Title Card Required
 -------------------
 Symbolic Z-matrix:
 Charge =  0 Multiplicity = 1

 SCF Done:  E(UM062X) =  -114.247045105     A.U. after   12 cycles
 SCF Done:  E(UM062X) =  -114.249851084     A.U. after   11 cycles
 SCF Done:  E(UM062X) =  -114.251015208     A.U. after   11 cycles
 SCF Done:  E(UM062X) =  -114.251036317     A.U. after   10 cycles
 SCF Done:  E(UM062X) =  -114.251036249     A.U. after   10 cycles
 SCF Done:  E(UM062X) =  -114.251036333     A.U. after    8 cycles
 Optimization completed.
    -- Stationary point found.

                          Input orientation:
 ---------------------------------------------------------------------
 Center     Atomic      Atomic             Coordinates (Angstroms)
 Number     Number       Type             X           Y           Z
 ---------------------------------------------------------------------
      1          6           0       -0.948311    0.000000    0.000000
      2          8           0        0.948311    0.000000    0.000000
      3          1           0       -1.391121   -0.986658   -0.000024
      4          1           0       -1.391121    0.986658   -0.000023
 ---------------------------------------------------------------------

 Alpha  occ. eigenvalues --  -19.67441 -10.71377  -0.99741  -0.80781  -0.58970
 Alpha  occ. eigenvalues --   -0.42009  -0.36185  -0.34714
 Alpha virt. eigenvalues --   -0.13345  -0.02692   0.01683   0.04155   0.06641
 Alpha virt. eigenvalues --    0.07431   0.13128   0.18541   0.21334   0.23860
 Alpha virt. eigenvalues --    0.26484   0.33094   0.39693   0.45970   0.53694

  Beta  occ. eigenvalues --  -19.67441 -10.71377  -0.99741  -0.80781  -0.58970
  Beta  occ. eigenvalues --   -0.42009  -0.36185  -0.34714
  Beta virt. eigenvalues --   -0.13345  -0.02692   0.01683   0.04155   0.06641
  Beta virt. eigenvalues --    0.07431   0.13128   0.18541   0.21334   0.23860
  Beta virt. eigenvalues --    0.26484   0.33094   0.39693   0.45970   0.53694

 Mulliken charges and spin densities:
               1          2
     1  C   -0.110298   0.000000
     2  O   -0.314247  -0.000000
     3  H    0.212272  -0.000000
     4  H    0.212272  -0.000000
 Sum of Mulliken charges =  -0.00000   0.00000

 Dipole moment (field-independent basis, Debye):
    X=             -4.4758    Y=             -0.0000    Z=             -0.0000  Tot=              4.4758
 Quadrupole moment (field-independent basis, Debye-Ang):
   XX=            -10.5331   YY=            -11.4075   ZZ=            -13.1620
   XY=             -0.0000   XZ=              0.0000   YZ=              0.0000

 Normal termination of Gaussian 16 at Mon Apr 21 18:48:20 2025.
