 Gaussian 16, Revision A.03,
 Gaussian 16:  ES64L-G16RevA.03 25-Dec-2016

 ---------------------------------------------------------
 #p opt UM062X/6-311+G** nosymm int=superfine SCF=NoVarAcc
 ---------------------------------------------------------

 -------------------
 Title Card Required
 -------------------
 Symbolic Z-matrix:
 Charge =  1 Multiplicity = 2

 SCF Done:  E(UM062X) =  -77.8972560151     A.U. after   10 cycles
 SCF Done:  E(UM062X) =  -77.9012103203     A.U. after    9 cycles
 SCF Done:  E(UM062X) =  -77.9038202884     A.U. after   10 cycles
 SCF Done:  E(UM062X) =  -77.9038237419     A.U. after    8 cycles
 Optimization completed.
    -- Stationary point found.

                          Input orientation:
 ---------------------------------------------------------------------
 Center     Atomic      Atomic             Coordinates (Angstroms)
 Number     Number       Type             X           Y           Z
 ---------------------------------------------------------------------
      1          6           0       -2.156027    0.000000    0.000000
      2          6           0        2.156027    0.000000    0.000000
      3          1           0       -2.715481   -0.942458    0.000000
      4          1           0       -2.715422    0.942492    0.000000
      5          1           0        2.715480    0.942458    0.000000
      6          1           0        2.715422   -0.942492    0.000000
 ---------------------------------------------------------------------

 Alpha  occ. eigenvalues --  -10.88097 -10.88097  -0.99460  -0.99432  -0.74138
 Alpha  occ. eigenvalues --   -0.74122  -0.57461  -0.56687
 Alpha virt. eigenvalues --   -0.31318  -0.31111  -0.12463  -0.10736  -0.08744
 Alpha virt. eigenvalues --   -0.06854  -0.06210  -0.05964  -0.04066  -0.01238
 Alpha virt. eigenvalues --   -0.00065   0.00601   0.02409   0.04935   0.27644

  Beta  occ. eigenvalues --  -10.87323 -10.87322  -0.97296  -0.97166  -0.73116
  Beta  occ. eigenvalues --   -0.73092  -0.45720
  Beta virt. eigenvalues --   -0.36649  -0.29550  -0.29277  -0.12217  -0.10883
  Beta virt. eigenvalues --   -0.08583  -0.06679  -0.06372  -0.04382  -0.04126
  Beta virt. eigenvalues --   -0.01067   0.00696   0.00928   0.02532   0.05631

 Mulliken charges and spin densities:
               1          2
     1  C    0.025414   0.486151
     2  C    0.025414   0.486152
     3  H    0.237293   0.006924
     4  H    0.237293   0.006924
     5  H    0.237293   0.006924
     6  H    0.237293   0.006924
 Sum of Mulliken charges =   1.00000   1.00000

 Dipole moment (field-independent basis, Debye):
    X=              0.0000    Y=              0.0000    Z=              0.0000  Tot=              0.0000
 Quadrupole moment (field-independent basis, Debye-Ang):
   XX=             24.2543   YY=             -9.4510   ZZ=            -10.7297
   XY=             -0.0001   XZ=             -0.0000   YZ=             -0.0000

 Normal termination of Gaussian 16 at Tue Dec  3 13:35:48 2024.
