 Gaussian 16, Revision A.03,
 Gaussian 16:  ES64L-G16RevA.03 25-Dec-2016

 --------------------------------------------
 #p opt UM062X/6-311+G** nosymm int=superfine
 --------------------------------------------

 -------------------
 Title Card Required
 -------------------
 Symbolic Z-matrix:
 Charge =  0 Multiplicity = 1

 SCF Done:  E(UM062X) =  -683.768967727     A.U. after    9 cycles
 SCF Done:  E(UM062X) =  -683.769889915     A.U. after    9 cycles
 Optimization completed.
    -- Stationary point found.

                          Input orientation:
 ---------------------------------------------------------------------
 Center     Atomic      Atomic             Coordinates (Angstroms)
 Number     Number       Type             X           Y           Z
 ---------------------------------------------------------------------
      1         15           0       -1.309490    0.000000    0.000000
      2         15           0        1.309490    0.000000    0.000000
      3          1           0       -1.305768   -1.421731   -0.000000
      4          1           0        1.305768    1.421731   -0.000000
 ---------------------------------------------------------------------

 Alpha  occ. eigenvalues --  -78.07142 -78.07142  -6.89156  -6.89153  -5.00627
 Alpha  occ. eigenvalues --   -5.00627  -5.00556  -5.00552  -5.00399  -5.00397
 Alpha  occ. eigenvalues --   -0.71546  -0.65093  -0.41125  -0.39794  -0.31461
 Alpha  occ. eigenvalues --   -0.27812
 Alpha virt. eigenvalues --   -0.12487  -0.04535   0.01844   0.03488   0.04017
 Alpha virt. eigenvalues --    0.04519   0.04864   0.06256   0.06854   0.08473
 Alpha virt. eigenvalues --    0.09819   0.12814   0.28666   0.29177   0.30369

  Beta  occ. eigenvalues --  -78.07142 -78.07142  -6.89156  -6.89153  -5.00627
  Beta  occ. eigenvalues --   -5.00627  -5.00556  -5.00552  -5.00399  -5.00397
  Beta  occ. eigenvalues --   -0.71546  -0.65093  -0.41125  -0.39794  -0.31461
  Beta  occ. eigenvalues --   -0.27812
  Beta virt. eigenvalues --   -0.12487  -0.04535   0.01844   0.03488   0.04017
  Beta virt. eigenvalues --    0.04519   0.04864   0.06256   0.06854   0.08473
  Beta virt. eigenvalues --    0.09819   0.12814   0.28666   0.29177   0.30369

 Mulliken charges and spin densities:
               1          2
     1  P    0.009776  -0.000000
     2  P    0.009776   0.000000
     3  H   -0.009776   0.000000
     4  H   -0.009776  -0.000000
 Sum of Mulliken charges =  -0.00000  -0.00000

 Dipole moment (field-independent basis, Debye):
    X=             -0.0000    Y=              0.0000    Z=             -0.0000  Tot=              0.0000
 Quadrupole moment (field-independent basis, Debye-Ang):
   XX=            -28.3846   YY=            -27.8832   ZZ=            -29.9627
   XY=              2.6177   XZ=             -0.0000   YZ=             -0.0000

 Normal termination of Gaussian 16 at Mon Apr 21 21:12:05 2025.
