 Gaussian 16, Revision A.03,
 Gaussian 16:  ES64L-G16RevA.03 25-Dec-2016

 --------------------------------------------
 #p opt UM062X/6-311+G** nosymm int=superfine
 --------------------------------------------

 -------------------
 Title Card Required
 -------------------
 Symbolic Z-matrix:
 Charge =  0 Multiplicity = 1

 SCF Done:  E(UM062X) =  -79.5872776579     A.U. after   10 cycles
 SCF Done:  E(UM062X) =  -79.5903615180     A.U. after    9 cycles
 SCF Done:  E(UM062X) =  -79.5914742808     A.U. after    9 cycles
 SCF Done:  E(UM062X) =  -79.5914785207     A.U. after    8 cycles
 Optimization completed.
    -- Stationary point found.

                          Input orientation:
 ---------------------------------------------------------------------
 Center     Atomic      Atomic             Coordinates (Angstroms)
 Number     Number       Type             X           Y           Z
 ---------------------------------------------------------------------
      1          6           0       -1.771675    0.000000    0.000000
      2          6           0        1.771800    0.000000    0.000000
      3          1           0        1.853228   -0.932178    0.539401
      4          1           0       -1.853091   -0.933229   -0.537581
      5          1           0        1.853219    0.933230    0.537580
      6          1           0        1.853212   -0.001051   -1.076992
      7          1           0       -1.853102    0.932178   -0.539401
      8          1           0       -1.853091    0.001050    1.076992
 ---------------------------------------------------------------------

 Alpha  occ. eigenvalues --  -10.57147 -10.57146  -0.77021  -0.76464  -0.49060
 Alpha  occ. eigenvalues --   -0.49060  -0.48797  -0.48797  -0.22645
 Alpha virt. eigenvalues --   -0.10038   0.03071   0.05230   0.05335   0.05335
 Alpha virt. eigenvalues --    0.07582   0.07582   0.11392   0.12483   0.18535
 Alpha virt. eigenvalues --    0.18535   0.20618   0.20618   0.23192   0.24997

  Beta  occ. eigenvalues --  -10.57147 -10.57146  -0.77021  -0.76464  -0.49060
  Beta  occ. eigenvalues --   -0.49060  -0.48797  -0.48797  -0.22645
  Beta virt. eigenvalues --   -0.10038   0.03071   0.05230   0.05335   0.05335
  Beta virt. eigenvalues --    0.07582   0.07582   0.11392   0.12483   0.18535
  Beta virt. eigenvalues --    0.18535   0.20618   0.20618   0.23192   0.24997

 Mulliken charges and spin densities:
               1          2
     1  C   -0.526503   0.000000
     2  C   -0.526503  -0.000000
     3  H    0.175501   0.000000
     4  H    0.175501  -0.000000
     5  H    0.175501   0.000000
     6  H    0.175501   0.000000
     7  H    0.175501  -0.000000
     8  H    0.175501  -0.000000
 Sum of Mulliken charges =  -0.00000  -0.00000

 Dipole moment (field-independent basis, Debye):
    X=              0.0000    Y=             -0.0000    Z=             -0.0000  Tot=              0.0000
 Quadrupole moment (field-independent basis, Debye-Ang):
   XX=            -15.4693   YY=            -14.8425   ZZ=            -14.8425
   XY=             -0.0000   XZ=              0.0000   YZ=              0.0000

 Normal termination of Gaussian 16 at Tue Dec  3 10:04:37 2024.
