 Gaussian 16, Revision A.03,
 Gaussian 16:  ES64L-G16RevA.03 25-Dec-2016

 --------------------------------------------
 #p opt UM062X/6-311+G** nosymm int=superfine
 --------------------------------------------

 -------------------
 Title Card Required
 -------------------
 Symbolic Z-matrix:
 Charge =  0 Multiplicity = 1

 SCF Done:  E(UM062X) =  -581.115636002     A.U. after   10 cycles
 SCF Done:  E(UM062X) =  -581.116495068     A.U. after    8 cycles
 SCF Done:  E(UM062X) =  -581.116797392     A.U. after   11 cycles
 SCF Done:  E(UM062X) =  -581.116799550     A.U. after   11 cycles
 SCF Done:  E(UM062X) =  -581.142617862     A.U. after   17 cycles
 SCF Done:  E(UM062X) =  -581.172047596     A.U. after   15 cycles
 SCF Done:  E(UM062X) =  -581.192853185     A.U. after   12 cycles
 SCF Done:  E(UM062X) =  -581.195181124     A.U. after   11 cycles
 SCF Done:  E(UM062X) =  -581.195690158     A.U. after   10 cycles
 SCF Done:  E(UM062X) =  -581.195715890     A.U. after    9 cycles
 SCF Done:  E(UM062X) =  -581.195715982     A.U. after    8 cycles
 Optimization completed.
    -- Stationary point found.

                          Input orientation:
 ---------------------------------------------------------------------
 Center     Atomic      Atomic             Coordinates (Angstroms)
 Number     Number       Type             X           Y           Z
 ---------------------------------------------------------------------
      1         14           0       -1.662518    0.000000    0.000000
      2         14           0        1.662518    0.000000    0.000000
      3          1           0       -2.175822   -1.118238    0.870195
      4          1           0        2.199822    1.117661   -0.855879
      5          1           0       -2.177532    1.117770    0.869766
      6          1           0        2.198362   -1.119008   -0.855053
 ---------------------------------------------------------------------

 Alpha  occ. eigenvalues --  -67.02556 -67.02433  -5.57198  -5.57076  -3.88475
 Alpha  occ. eigenvalues --   -3.88351  -3.87958  -3.87842  -3.87836  -3.87720
 Alpha  occ. eigenvalues --   -0.58897  -0.57393  -0.39675  -0.39153  -0.31518
 Alpha  occ. eigenvalues --   -0.26701
 Alpha virt. eigenvalues --   -0.10364  -0.04055   0.02203   0.02620   0.03699
 Alpha virt. eigenvalues --    0.04786   0.05513   0.05674   0.05864   0.06318
 Alpha virt. eigenvalues --    0.08388   0.08544   0.12464   0.15973   0.27601

  Beta  occ. eigenvalues --  -67.02556 -67.02433  -5.57198  -5.57076  -3.88475
  Beta  occ. eigenvalues --   -3.88351  -3.87958  -3.87842  -3.87836  -3.87720
  Beta  occ. eigenvalues --   -0.58897  -0.57393  -0.39675  -0.39153  -0.31518
  Beta  occ. eigenvalues --   -0.26701
  Beta virt. eigenvalues --   -0.10364  -0.04055   0.02203   0.02620   0.03699
  Beta virt. eigenvalues --    0.04786   0.05513   0.05674   0.05864   0.06318
  Beta virt. eigenvalues --    0.08388   0.08544   0.12464   0.15973   0.27601

 Mulliken charges and spin densities:
               1          2
     1  Si   0.253311   0.000000
     2  Si   0.257017  -0.000000
     3  H   -0.127740   0.000000
     4  H   -0.127425  -0.000000
     5  H   -0.127731   0.000000
     6  H   -0.127432  -0.000000
 Sum of Mulliken charges =  -0.00000   0.00000

 Dipole moment (field-independent basis, Debye):
    X=              0.0496    Y=             -0.0001    Z=              0.0046  Tot=              0.0499
 Quadrupole moment (field-independent basis, Debye-Ang):
   XX=            -25.1184   YY=            -31.9056   ZZ=            -33.4088
   XY=              0.0011   XZ=              2.9543   YZ=             -0.0002

 Normal termination of Gaussian 16 at Mon Apr 21 20:32:30 2025.
