 Gaussian 16, Revision A.03,
 Gaussian 16:  ES64L-G16RevA.03 25-Dec-2016

 --------------------------------------------
 #p opt UM062X/6-311+G** nosymm int=superfine
 --------------------------------------------

 -------------------
 Title Card Required
 -------------------
 Symbolic Z-matrix:
 Charge =  0 Multiplicity = 1

 SCF Done:  E(UM062X) =  -382.275134566     A.U. after   13 cycles
 SCF Done:  E(UM062X) =  -382.284549153     A.U. after   11 cycles
 SCF Done:  E(UM062X) =  -382.289175382     A.U. after   11 cycles
 SCF Done:  E(UM062X) =  -382.289221851     A.U. after    9 cycles
 SCF Done:  E(UM062X) =  -382.289247603     A.U. after    9 cycles
 SCF Done:  E(UM062X) =  -382.289259388     A.U. after    9 cycles
 SCF Done:  E(UM062X) =  -382.289260734     A.U. after    9 cycles
 SCF Done:  E(UM062X) =  -382.289261413     A.U. after   10 cycles
 Optimization completed.
    -- Stationary point found.

                          Input orientation:
 ---------------------------------------------------------------------
 Center     Atomic      Atomic             Coordinates (Angstroms)
 Number     Number       Type             X           Y           Z
 ---------------------------------------------------------------------
      1          6           0       -1.681264    0.000000    0.000000
      2         15           0        1.681264    0.000000    0.000000
      3          1           0        1.626488   -1.417883    0.031728
      4          1           0       -1.779244    1.049656    0.236833
      5          1           0        1.626582    0.083406    1.415767
      6          1           0       -1.779178   -0.315845   -1.028649
      7          1           0       -1.799560   -0.730210    0.787925
 ---------------------------------------------------------------------

 Alpha  occ. eigenvalues --  -78.03316 -10.58880  -6.85670  -4.97197  -4.97125
 Alpha  occ. eigenvalues --   -4.96939  -0.78212  -0.69429  -0.50214  -0.50155
 Alpha  occ. eigenvalues --   -0.43617  -0.34726  -0.25487
 Alpha virt. eigenvalues --   -0.10217   0.02048   0.03996   0.04068   0.04604
 Alpha virt. eigenvalues --    0.06367   0.06955   0.07132   0.07332   0.11904
 Alpha virt. eigenvalues --    0.17484   0.18605   0.18748   0.23874   0.30090

  Beta  occ. eigenvalues --  -78.03316 -10.58880  -6.85670  -4.97197  -4.97125
  Beta  occ. eigenvalues --   -4.96939  -0.78212  -0.69429  -0.50214  -0.50155
  Beta  occ. eigenvalues --   -0.43617  -0.34726  -0.25487
  Beta virt. eigenvalues --   -0.10217   0.02048   0.03996   0.04068   0.04604
  Beta virt. eigenvalues --    0.06367   0.06955   0.07132   0.07332   0.11904
  Beta virt. eigenvalues --    0.17484   0.18605   0.18748   0.23874   0.30090

 Mulliken charges and spin densities:
               1          2
     1  C   -0.532126   0.000000
     2  P   -0.038418  -0.000000
     3  H    0.004955   0.000000
     4  H    0.187551  -0.000000
     5  H    0.004965   0.000000
     6  H    0.187571  -0.000000
     7  H    0.185501  -0.000000
 Sum of Mulliken charges =  -0.00000   0.00000

 Dipole moment (field-independent basis, Debye):
    X=             -1.1727    Y=             -0.5514    Z=              0.5981  Tot=              1.4272
 Quadrupole moment (field-independent basis, Debye-Ang):
   XX=            -22.3375   YY=            -22.3033   ZZ=            -22.4177
   XY=             -1.1565   XZ=              1.2547   YZ=              0.7031

 Normal termination of Gaussian 16 at Mon Apr 21 19:07:00 2025.
