 Gaussian 16, Revision A.03,
 Gaussian 16:  ES64L-G16RevA.03 25-Dec-2016

 --------------------------------------------
 #p opt UM062X/6-311+G** nosymm int=superfine
 --------------------------------------------

 -------------------
 Title Card Required
 -------------------
 Symbolic Z-matrix:
 Charge =  0 Multiplicity = 1

 SCF Done:  E(UM062X) =  -111.637630045     A.U. after   16 cycles
 SCF Done:  E(UM062X) =  -111.648952224     A.U. after   16 cycles
 SCF Done:  E(UM062X) =  -111.656452778     A.U. after   15 cycles
 SCF Done:  E(UM062X) =  -111.658367783     A.U. after   14 cycles
 SCF Done:  E(UM062X) =  -111.659646541     A.U. after   15 cycles
 SCF Done:  E(UM062X) =  -111.660171948     A.U. after   14 cycles
 SCF Done:  E(UM062X) =  -111.660701037     A.U. after   14 cycles
 SCF Done:  E(UM062X) =  -111.660833303     A.U. after   13 cycles
 SCF Done:  E(UM062X) =  -111.660875235     A.U. after   11 cycles
 SCF Done:  E(UM062X) =  -111.660938931     A.U. after   12 cycles
 SCF Done:  E(UM062X) =  -111.660948903     A.U. after   12 cycles
 SCF Done:  E(UM062X) =  -111.660949447     A.U. after   10 cycles
 Optimization completed.
    -- Stationary point found.

                          Input orientation:
 ---------------------------------------------------------------------
 Center     Atomic      Atomic             Coordinates (Angstroms)
 Number     Number       Type             X           Y           Z
 ---------------------------------------------------------------------
      1          7           0       -1.561540    0.000000    0.000000
      2          7           0        1.561540    0.000000    0.000000
      3          1           0       -1.469086   -0.815628   -0.618066
      4          1           0        1.468927    0.410542   -0.937383
      5          1           0       -1.468744   -0.411947    0.936746
      6          1           0        1.468756    0.816499    0.616856
 ---------------------------------------------------------------------

 Alpha  occ. eigenvalues --  -14.80544 -14.80542  -0.95258  -0.94443  -0.55226
 Alpha  occ. eigenvalues --   -0.54692  -0.40924  -0.40240  -0.30187
 Alpha virt. eigenvalues --   -0.16384   0.04530   0.06512   0.08697   0.11478
 Alpha virt. eigenvalues --    0.12811   0.13862   0.15911   0.15934   0.18855
 Alpha virt. eigenvalues --    0.19834   0.26869   0.26942   0.51306   0.51547

  Beta  occ. eigenvalues --  -14.80544 -14.80542  -0.95258  -0.94443  -0.55226
  Beta  occ. eigenvalues --   -0.54692  -0.40924  -0.40240  -0.30187
  Beta virt. eigenvalues --   -0.16384   0.04530   0.06512   0.08697   0.11478
  Beta virt. eigenvalues --    0.12811   0.13862   0.15911   0.15934   0.18855
  Beta virt. eigenvalues --    0.19834   0.26869   0.26942   0.51306   0.51547

 Mulliken charges and spin densities:
               1          2
     1  N   -0.497296   0.000000
     2  N   -0.497260  -0.000000
     3  H    0.248617  -0.000000
     4  H    0.248620   0.000000
     5  H    0.248660  -0.000000
     6  H    0.248659   0.000000
 Sum of Mulliken charges =  -0.00000   0.00000

 Dipole moment (field-independent basis, Debye):
    X=             -0.0001    Y=             -0.0008    Z=             -0.0029  Tot=              0.0030
 Quadrupole moment (field-independent basis, Debye-Ang):
   XX=            -16.0086   YY=            -14.2700   ZZ=            -11.4808
   XY=              6.5699   XZ=             -1.7106   YZ=              0.7792

 Normal termination of Gaussian 16 at Thu May 15 14:50:01 2025.
