 Gaussian 16, Revision A.03,
 Gaussian 16:  ES64L-G16RevA.03 25-Dec-2016

 --------------------------------------------
 #p opt UM062X/6-311+G** nosymm int=superfine
 --------------------------------------------

 -------------------
 Title Card Required
 -------------------
 Symbolic Z-matrix:
 Charge =  0 Multiplicity = 1

 SCF Done:  E(UM062X) =  -79.6824764494     A.U. after    8 cycles
 SCF Done:  E(UM062X) =  -79.7098267057     A.U. after    8 cycles
 SCF Done:  E(UM062X) =  -79.7300454844     A.U. after   10 cycles
 SCF Done:  E(UM062X) =  -79.7304378643     A.U. after    8 cycles
 Optimization completed.
    -- Stationary point found.

                          Input orientation:
 ---------------------------------------------------------------------
 Center     Atomic      Atomic             Coordinates (Angstroms)
 Number     Number       Type             X           Y           Z
 ---------------------------------------------------------------------
      1          6           0       -1.046059    0.000000    0.000000
      2          6           0        1.046166    0.000000    0.000000
      3          1           0        1.320646   -0.908357    0.525651
      4          1           0       -1.320541   -0.909385   -0.523881
      5          1           0        1.320650    0.909384    0.523879
      6          1           0        1.320717   -0.001025   -1.049469
      7          1           0       -1.320539    0.908358   -0.525651
      8          1           0       -1.320613    0.001025    1.049467
 ---------------------------------------------------------------------

 Alpha  occ. eigenvalues --  -10.54808 -10.54799  -0.78654  -0.72847  -0.48335
 Alpha  occ. eigenvalues --   -0.48334  -0.44724  -0.44723  -0.32254
 Alpha virt. eigenvalues --    0.02100   0.02364   0.05622   0.05622   0.08449
 Alpha virt. eigenvalues --    0.08449   0.09597   0.10034   0.13535   0.18172
 Alpha virt. eigenvalues --    0.18173   0.22067   0.22067   0.24311   0.26833

  Beta  occ. eigenvalues --  -10.54808 -10.54799  -0.78654  -0.72847  -0.48335
  Beta  occ. eigenvalues --   -0.48334  -0.44724  -0.44723  -0.32254
  Beta virt. eigenvalues --    0.02100   0.02364   0.05622   0.05622   0.08449
  Beta virt. eigenvalues --    0.08449   0.09597   0.10034   0.13535   0.18172
  Beta virt. eigenvalues --    0.18173   0.22067   0.22067   0.24311   0.26833

 Mulliken charges and spin densities:
               1          2
     1  C   -0.500392   0.000000
     2  C   -0.500392  -0.000000
     3  H    0.166798   0.000000
     4  H    0.166798  -0.000000
     5  H    0.166798   0.000000
     6  H    0.166796   0.000000
     7  H    0.166798  -0.000000
     8  H    0.166797  -0.000000
 Sum of Mulliken charges =  -0.00000  -0.00000

 Dipole moment (field-independent basis, Debye):
    X=              0.0000    Y=              0.0000    Z=              0.0000  Tot=              0.0000
 Quadrupole moment (field-independent basis, Debye-Ang):
   XX=            -15.5898   YY=            -14.8628   ZZ=            -14.8626
   XY=             -0.0000   XZ=             -0.0001   YZ=              0.0000

 Normal termination of Gaussian 16 at Tue Nov 19 12:08:37 2024.
