 Gaussian 16, Revision A.03,
 Gaussian 16:  ES64L-G16RevA.03 25-Dec-2016

 --------------------------------------------
 #p opt UM062X/6-311+G** nosymm int=superfine
 --------------------------------------------

 -------------------
 Title Card Required
 -------------------
 Symbolic Z-matrix:
 Charge =  1 Multiplicity = 2

 SCF Done:  E(UM062X) =  -76.5861353912     A.U. after   10 cycles
 SCF Done:  E(UM062X) =  -76.5864910596     A.U. after   20 cycles
 Optimization completed.
    -- Stationary point found.

                          Input orientation:
 ---------------------------------------------------------------------
 Center     Atomic      Atomic             Coordinates (Angstroms)
 Number     Number       Type             X           Y           Z
 ---------------------------------------------------------------------
      1          6           0       -1.682160    0.000000    0.000000
      2          6           0        1.682160    0.000000    0.000000
      3          1           0       -2.800233    0.000000    0.000000
      4          1           0        2.800232    0.000000    0.000000
 ---------------------------------------------------------------------

 Alpha  occ. eigenvalues --  -10.94918 -10.94917  -0.98628  -0.98339  -0.65242
 Alpha  occ. eigenvalues --   -0.62419  -0.49104
 Alpha virt. eigenvalues --   -0.40392  -0.33965  -0.33244  -0.12648  -0.11523
 Alpha virt. eigenvalues --   -0.07892  -0.07388  -0.05402  -0.04939  -0.04556
 Alpha virt. eigenvalues --   -0.01511  -0.00237   0.05989   0.23536   0.30798

  Beta  occ. eigenvalues --  -10.94513 -10.94513  -0.96230  -0.96064  -0.63920
  Beta  occ. eigenvalues --   -0.61005
  Beta virt. eigenvalues --   -0.32192  -0.31320  -0.30622  -0.29662  -0.13153
  Beta virt. eigenvalues --   -0.11443  -0.07390  -0.06668  -0.06223  -0.04232
  Beta virt. eigenvalues --   -0.03315  -0.02144   0.01432   0.07436   0.22852

 Mulliken charges and spin densities:
               1          2
     1  C    0.260536   0.516485
     2  C    0.260536   0.516485
     3  H    0.239464  -0.016485
     4  H    0.239464  -0.016485
 Sum of Mulliken charges =   1.00000   1.00000

 Dipole moment (field-independent basis, Debye):
    X=             -0.0000    Y=             -0.0000    Z=             -0.0000  Tot=              0.0000
 Quadrupole moment (field-independent basis, Debye-Ang):
   XX=             16.8038   YY=             -9.9923   ZZ=            -11.0474
   XY=              0.0000   XZ=             -0.0000   YZ=             -0.8671

 Normal termination of Gaussian 16 at Tue Dec  3 11:29:29 2024.
