 Gaussian 16, Revision A.03,
 Gaussian 16:  ES64L-G16RevA.03 25-Dec-2016

 --------------------------------------------
 #p opt UM062X/6-311+G** nosymm int=superfine
 --------------------------------------------

 -------------------
 Title Card Required
 -------------------
 Symbolic Z-matrix:
 Charge =  0 Multiplicity = 1

 SCF Done:  E(UM062X) =  -380.926212815     A.U. after   17 cycles
 SCF Done:  E(UM062X) =  -380.929287274     A.U. after   11 cycles
 SCF Done:  E(UM062X) =  -380.930274963     A.U. after   15 cycles
 SCF Done:  E(UM062X) =  -380.930294319     A.U. after   17 cycles
 SCF Done:  E(UM062X) =  -380.930422379     A.U. after   16 cycles
 SCF Done:  E(UM062X) =  -380.930495150     A.U. after   17 cycles
 SCF Done:  E(UM062X) =  -380.930527901     A.U. after   20 cycles
 SCF Done:  E(UM062X) =  -380.930541431     A.U. after   16 cycles
 SCF Done:  E(UM062X) =  -380.930542771     A.U. after   18 cycles
 SCF Done:  E(UM062X) =  -380.930543240     A.U. after   14 cycles
 SCF Done:  E(UM062X) =  -380.930546477     A.U. after   18 cycles
 SCF Done:  E(UM062X) =  -380.930366050     A.U. after   21 cycles
 SCF Done:  E(UM062X) =  -380.930539177     A.U. after   14 cycles
 SCF Done:  E(UM062X) =  -380.930549256     A.U. after   14 cycles
 SCF Done:  E(UM062X) =  -380.930506434     A.U. after   22 cycles
 SCF Done:  E(UM062X) =  -380.930552447     A.U. after   21 cycles
 SCF Done:  E(UM062X) =  -380.930552354     A.U. after   17 cycles
 SCF Done:  E(UM062X) =  -380.930544888     A.U. after   18 cycles
 SCF Done:  E(UM062X) =  -380.930553032     A.U. after   20 cycles
 SCF Done:  E(UM062X) =  -380.930553206     A.U. after   17 cycles
 Optimization completed.
    -- Stationary point found.

                          Input orientation:
 ---------------------------------------------------------------------
 Center     Atomic      Atomic             Coordinates (Angstroms)
 Number     Number       Type             X           Y           Z
 ---------------------------------------------------------------------
      1          6           0       -2.305452    0.000000    0.000000
      2         15           0        2.305452    0.000000    0.000000
      3          1           0       -3.038426   -0.828486    0.064543
      4          1           0        1.978103   -1.380686   -0.077528
      5          1           0       -2.960436    0.891617   -0.061239
 ---------------------------------------------------------------------

 Alpha  occ. eigenvalues --  -78.04815 -10.61777  -6.87089  -4.99105  -4.98326
 Alpha  occ. eigenvalues --   -4.97863  -0.76543  -0.65955  -0.48534  -0.38607
 Alpha  occ. eigenvalues --   -0.32445  -0.24732
 Alpha virt. eigenvalues --   -0.11706  -0.09080   0.01528   0.03579   0.04541
 Alpha virt. eigenvalues --    0.05906   0.06900   0.07085   0.08751   0.10074
 Alpha virt. eigenvalues --    0.13382   0.17418   0.18998   0.31230   0.33356

  Beta  occ. eigenvalues --  -78.04815 -10.61777  -6.87089  -4.99105  -4.98326
  Beta  occ. eigenvalues --   -4.97863  -0.76543  -0.65955  -0.48534  -0.38607
  Beta  occ. eigenvalues --   -0.32445  -0.24732
  Beta virt. eigenvalues --   -0.11706  -0.09080   0.01528   0.03579   0.04541
  Beta virt. eigenvalues --    0.05906   0.06900   0.07085   0.08751   0.10074
  Beta virt. eigenvalues --    0.13382   0.17418   0.18998   0.31230   0.33356

 Mulliken charges and spin densities:
               1          2
     1  C   -0.276559   0.000000
     2  P    0.040545  -0.000000
     3  H    0.134328   0.000000
     4  H   -0.032521   0.000000
     5  H    0.134207  -0.000000
 Sum of Mulliken charges =  -0.00000   0.00000

 Dipole moment (field-independent basis, Debye):
    X=             -2.4247    Y=             -0.5780    Z=             -0.0327  Tot=              2.4928
 Quadrupole moment (field-independent basis, Debye-Ang):
   XX=            -11.7597   YY=            -21.2998   ZZ=            -25.1926
   XY=             -2.3847   XZ=             -0.1170   YZ=              0.3087

 Normal termination of Gaussian 16 at Mon Apr 21 19:24:54 2025.
