 Gaussian 16, Revision A.03,
 Gaussian 16:  ES64L-G16RevA.03 25-Dec-2016

 --------------------------------------------
 #p opt UM062X/6-311+G** nosymm int=superfine
 --------------------------------------------

 -------------------
 Title Card Required
 -------------------
 Symbolic Z-matrix:
 Charge =  0 Multiplicity = 1

 SCF Done:  E(UM062X) =  -581.143305333     A.U. after    8 cycles
 SCF Done:  E(UM062X) =  -581.162828048     A.U. after    8 cycles
 SCF Done:  E(UM062X) =  -581.174659866     A.U. after    8 cycles
 SCF Done:  E(UM062X) =  -581.174679876     A.U. after    7 cycles
 Optimization completed.
    -- Stationary point found.

                          Input orientation:
 ---------------------------------------------------------------------
 Center     Atomic      Atomic             Coordinates (Angstroms)
 Number     Number       Type             X           Y           Z
 ---------------------------------------------------------------------
      1         14           0       -2.562518    0.000000    0.000000
      2         14           0        2.562518    0.000000    0.000000
      3          1           0       -3.624605   -1.084578    0.000040
      4          1           0        3.624605    1.084577   -0.000547
      5          1           0       -3.624609    1.084574    0.000254
      6          1           0        3.624609   -1.084573    0.000840
 ---------------------------------------------------------------------

 Alpha  occ. eigenvalues --  -67.01351 -67.01351  -5.56072  -5.56072  -3.87321
 Alpha  occ. eigenvalues --   -3.87321  -3.86779  -3.86779  -3.86636  -3.86635
 Alpha  occ. eigenvalues --   -0.57310  -0.57278  -0.37910  -0.37898  -0.28728
 Alpha  occ. eigenvalues --   -0.27675
 Alpha virt. eigenvalues --   -0.08083  -0.07697   0.02077   0.02553   0.02918
 Alpha virt. eigenvalues --    0.04530   0.05439   0.06029   0.06051   0.07508
 Alpha virt. eigenvalues --    0.07676   0.08913   0.11423   0.13837   0.28567

  Beta  occ. eigenvalues --  -67.01351 -67.01351  -5.56072  -5.56072  -3.87321
  Beta  occ. eigenvalues --   -3.87321  -3.86779  -3.86779  -3.86636  -3.86635
  Beta  occ. eigenvalues --   -0.57310  -0.57278  -0.37910  -0.37898  -0.28728
  Beta  occ. eigenvalues --   -0.27675
  Beta virt. eigenvalues --   -0.08083  -0.07697   0.02077   0.02553   0.02918
  Beta virt. eigenvalues --    0.04530   0.05439   0.06029   0.06051   0.07508
  Beta virt. eigenvalues --    0.07676   0.08913   0.11423   0.13837   0.28567

 Mulliken charges and spin densities:
               1          2
     1  Si   0.323426   0.000000
     2  Si   0.323426   0.000000
     3  H   -0.161713  -0.000000
     4  H   -0.161713  -0.000000
     5  H   -0.161713   0.000000
     6  H   -0.161713  -0.000000
 Sum of Mulliken charges =  -0.00000   0.00000

 Dipole moment (field-independent basis, Debye):
    X=              0.0000    Y=              0.0000    Z=              0.0001  Tot=              0.0001
 Quadrupole moment (field-independent basis, Debye-Ang):
   XX=            -34.8117   YY=            -32.6966   ZZ=            -24.3586
   XY=             -0.0000   XZ=              0.0000   YZ=              0.0023

 Normal termination of Gaussian 16 at Mon Apr 21 20:36:23 2025.
