 Gaussian 16, Revision A.03,
 Gaussian 16:  ES64L-G16RevA.03 25-Dec-2016

 --------------------------------------------
 #p opt UM062X/6-311+G** nosymm int=superfine
 --------------------------------------------

 -------------------
 Title Card Required
 -------------------
 Symbolic Z-matrix:
 Charge =  0 Multiplicity = 1

 SCF Done:  E(UM062X) =  -111.642979631     A.U. after   16 cycles
 SCF Done:  E(UM062X) =  -111.655896006     A.U. after   16 cycles
 SCF Done:  E(UM062X) =  -111.663845110     A.U. after   15 cycles
 SCF Done:  E(UM062X) =  -111.665484965     A.U. after   13 cycles
 SCF Done:  E(UM062X) =  -111.666666990     A.U. after   13 cycles
 SCF Done:  E(UM062X) =  -111.667223508     A.U. after   12 cycles
 SCF Done:  E(UM062X) =  -111.667699661     A.U. after   13 cycles
 SCF Done:  E(UM062X) =  -111.667794586     A.U. after   12 cycles
 SCF Done:  E(UM062X) =  -111.667841107     A.U. after   11 cycles
 SCF Done:  E(UM062X) =  -111.667885517     A.U. after   12 cycles
 SCF Done:  E(UM062X) =  -111.667891735     A.U. after   10 cycles
 SCF Done:  E(UM062X) =  -111.667892001     A.U. after   12 cycles
 Optimization completed.
    -- Stationary point found.

                          Input orientation:
 ---------------------------------------------------------------------
 Center     Atomic      Atomic             Coordinates (Angstroms)
 Number     Number       Type             X           Y           Z
 ---------------------------------------------------------------------
      1          7           0       -1.511540    0.000000    0.000000
      2          7           0        1.511540    0.000000    0.000000
      3          1           0       -1.425490   -0.816689   -0.617420
      4          1           0        1.425390    0.412055   -0.937227
      5          1           0       -1.425248   -0.413175    0.936717
      6          1           0        1.425152    0.817379    0.616458
 ---------------------------------------------------------------------

 Alpha  occ. eigenvalues --  -14.80519 -14.80517  -0.95282  -0.94294  -0.55206
 Alpha  occ. eigenvalues --   -0.54557  -0.40942  -0.40138  -0.30588
 Alpha virt. eigenvalues --   -0.15846   0.04560   0.06610   0.08705   0.11472
 Alpha virt. eigenvalues --    0.12881   0.13891   0.15869   0.15937   0.19025
 Alpha virt. eigenvalues --    0.20047   0.26776   0.27300   0.51331   0.51554

  Beta  occ. eigenvalues --  -14.80519 -14.80517  -0.95282  -0.94294  -0.55206
  Beta  occ. eigenvalues --   -0.54557  -0.40942  -0.40138  -0.30588
  Beta virt. eigenvalues --   -0.15846   0.04560   0.06610   0.08705   0.11472
  Beta virt. eigenvalues --    0.12881   0.13891   0.15869   0.15937   0.19025
  Beta virt. eigenvalues --    0.20047   0.26776   0.27300   0.51331   0.51554

 Mulliken charges and spin densities:
               1          2
     1  N   -0.499959   0.000000
     2  N   -0.499909  -0.000000
     3  H    0.249948  -0.000000
     4  H    0.249949   0.000000
     5  H    0.249985  -0.000000
     6  H    0.249985   0.000000
 Sum of Mulliken charges =  -0.00000   0.00000

 Dipole moment (field-independent basis, Debye):
    X=             -0.0002    Y=             -0.0006    Z=             -0.0023  Tot=              0.0024
 Quadrupole moment (field-independent basis, Debye-Ang):
   XX=            -15.8879   YY=            -14.2435   ZZ=            -11.4653
   XY=              6.3894   XZ=             -1.6629   YZ=              0.7756

 Normal termination of Gaussian 16 at Thu May 15 14:47:45 2025.
