 Gaussian 16, Revision A.03,
 Gaussian 16:  ES64L-G16RevA.03 25-Dec-2016

 --------------------------------------------
 #p opt UM062X/6-311+G** nosymm int=superfine
 --------------------------------------------

 -------------------
 Title Card Required
 -------------------
 Symbolic Z-matrix:
 Charge =  1 Multiplicity = 2

 SCF Done:  E(UM062X) =  -582.143301280     A.U. after   11 cycles
 SCF Done:  E(UM062X) =  -582.143954682     A.U. after    9 cycles
 SCF Done:  E(UM062X) =  -582.144079927     A.U. after    9 cycles
 SCF Done:  E(UM062X) =  -582.144080065     A.U. after    7 cycles
 Optimization completed.
    -- Stationary point found.

                          Input orientation:
 ---------------------------------------------------------------------
 Center     Atomic      Atomic             Coordinates (Angstroms)
 Number     Number       Type             X           Y           Z
 ---------------------------------------------------------------------
      1         14           0       -2.126292    0.000000    0.000000
      2         14           0        2.126292    0.000000    0.000000
      3          1           0        2.252894   -1.459242   -0.000005
      4          1           0       -2.252332   -0.729494    1.263869
      5          1           0        2.252820    0.729648   -1.263730
      6          1           0        2.252155    0.729581    1.263837
      7          1           0       -2.252918    1.459240   -0.000123
      8          1           0       -2.252619   -0.729739   -1.263698
 ---------------------------------------------------------------------

 Alpha  occ. eigenvalues --  -67.22858 -67.22858  -5.77687  -5.77685  -4.09366
 Alpha  occ. eigenvalues --   -4.09366  -4.08558  -4.08558  -4.08558  -4.08558
 Alpha  occ. eigenvalues --   -0.81487  -0.80910  -0.61763  -0.61762  -0.61596
 Alpha  occ. eigenvalues --   -0.61595  -0.41998
 Alpha virt. eigenvalues --   -0.29252  -0.12658  -0.11934  -0.10042  -0.10041
 Alpha virt. eigenvalues --   -0.09948  -0.08778  -0.08778  -0.07782  -0.07598
 Alpha virt. eigenvalues --   -0.07598  -0.06256  -0.06254  -0.04586   0.00758

  Beta  occ. eigenvalues --  -67.22595 -67.22594  -5.77609  -5.77606  -4.08749
  Beta  occ. eigenvalues --   -4.08748  -4.08468  -4.08467  -4.08467  -4.08467
  Beta  occ. eigenvalues --   -0.79695  -0.79353  -0.61620  -0.61619  -0.61444
  Beta  occ. eigenvalues --   -0.61444
  Beta virt. eigenvalues --   -0.31282  -0.22814  -0.14626  -0.12771  -0.12768
  Beta virt. eigenvalues --   -0.10970  -0.10840  -0.09240  -0.09239  -0.07178
  Beta virt. eigenvalues --   -0.07177  -0.07169  -0.05918  -0.05918  -0.05345

 Mulliken charges and spin densities:
               1          2
     1  Si   0.497816   0.549699
     2  Si   0.497816   0.549699
     3  H    0.000734  -0.016567
     4  H    0.000722  -0.016566
     5  H    0.000731  -0.016567
     6  H    0.000719  -0.016564
     7  H    0.000734  -0.016567
     8  H    0.000727  -0.016566
 Sum of Mulliken charges =   1.00000   1.00000

 Dipole moment (field-independent basis, Debye):
    X=              0.0000    Y=             -0.0000    Z=              0.0000  Tot=              0.0000
 Quadrupole moment (field-independent basis, Debye-Ang):
   XX=              1.3136   YY=            -26.1807   ZZ=            -26.1805
   XY=              0.0005   XZ=              0.0001   YZ=             -0.0000

 Normal termination of Gaussian 16 at Mon Apr 21 20:15:25 2025.
