 Gaussian 16, Revision A.03,
 Gaussian 16:  ES64L-G16RevA.03 25-Dec-2016

 ---------------------------------------
 #p UM062X/6-311+G** force int=superfine
 ---------------------------------------

 -------------------
 Title Card Required
 -------------------
 Symbolic Z-matrix:
 Charge =  1 Multiplicity = 2

                         Standard orientation:
 ---------------------------------------------------------------------
 Center     Atomic      Atomic             Coordinates (Angstroms)
 Number     Number       Type             X           Y           Z
 ---------------------------------------------------------------------
      1          6           0        0.555364   -0.652836    1.228577
      2          6           0       -0.555358    0.652845   -1.228572
      3          1           0        0.336386    0.441599   -1.807758
      4          1           0        0.661083   -1.611555    0.733635
      5          1           0       -0.661565    1.611796   -0.734183
      6          1           0       -1.398541   -0.027245   -1.271061
      7          1           0       -0.336295   -0.441446    1.807842
      8          1           0        1.398896    0.026794    1.271497
 ---------------------------------------------------------------------

 SCF Done:  E(UM062X) =  -79.3402856300     A.U. after   10 cycles

 The electronic state is 2-A.
 Alpha  occ. eigenvalues --  -10.85111 -10.85108  -1.04257  -1.02606  -0.74863
 Alpha  occ. eigenvalues --   -0.74862  -0.74058  -0.74058  -0.52967
 Alpha virt. eigenvalues --   -0.35152  -0.14179  -0.10318  -0.10318  -0.10140
 Alpha virt. eigenvalues --   -0.06225  -0.06225  -0.05409  -0.03232  -0.02324
 Alpha virt. eigenvalues --   -0.02322   0.01365   0.01367   0.05077   0.07604

  Beta  occ. eigenvalues --  -10.84913 -10.84913  -1.01339  -1.00211  -0.74302
  Beta  occ. eigenvalues --   -0.74301  -0.73552  -0.73551
  Beta virt. eigenvalues --   -0.32708  -0.25365  -0.15432  -0.11128  -0.11127
  Beta virt. eigenvalues --   -0.09913  -0.06450  -0.06450  -0.05538  -0.02542
  Beta virt. eigenvalues --   -0.02540  -0.02377   0.01685   0.01687   0.05989

 Mulliken charges and spin densities:
               1          2
     1  C   -0.273453   0.568822
     2  C   -0.273454   0.568824
     3  H    0.257838  -0.022947
     4  H    0.257802  -0.022929
     5  H    0.257829  -0.022931
     6  H    0.257787  -0.022945
     7  H    0.257839  -0.022948
     8  H    0.257813  -0.022946
 Sum of Mulliken charges =   1.00000   1.00000

 Dipole moment (field-independent basis, Debye):
    X=             -0.0000    Y=             -0.0001    Z=             -0.0000  Tot=              0.0001
 Quadrupole moment (field-independent basis, Debye-Ang):
   XX=             -9.5597   YY=             -8.9996   ZZ=             -3.8543
   XY=             -1.7210   XZ=              3.2391   YZ=             -3.8089

 Normal termination of Gaussian 16 at Wed Nov 13 12:58:08 2024.
