 Gaussian 16, Revision A.03,
 Gaussian 16:  ES64L-G16RevA.03 25-Dec-2016

 ---------------------------------------
 #p UM062X/6-311+G** force int=superfine
 ---------------------------------------

 -------------------
 Title Card Required
 -------------------
 Symbolic Z-matrix:
 Charge =  0 Multiplicity = 1

                         Standard orientation:
 ---------------------------------------------------------------------
 Center     Atomic      Atomic             Coordinates (Angstroms)
 Number     Number       Type             X           Y           Z
 ---------------------------------------------------------------------
      1          6           0        0.953103    0.002749   -0.051228
      2          6           0       -0.953103   -0.002749    0.051228
      3          1           0       -1.215285   -0.524479    0.966998
      4          1           0        1.311984    0.523001    0.832017
      5          1           0       -1.311986   -0.523000   -0.832017
      6          1           0       -1.268080    1.036505    0.069013
      7          1           0        1.215284    0.524479   -0.966998
      8          1           0        1.268081   -1.036504   -0.069013
 ---------------------------------------------------------------------

 SCF Done:  E(UM062X) =  -79.7579994350     A.U. after    8 cycles

 The electronic state is 1-A.
 Alpha  occ. eigenvalues --  -10.54123 -10.54111  -0.79893  -0.72040  -0.48605
 Alpha  occ. eigenvalues --   -0.48604  -0.43596  -0.43595  -0.35101
 Alpha virt. eigenvalues --    0.02289   0.03249   0.05640   0.05640   0.08556
 Alpha virt. eigenvalues --    0.08557   0.09351   0.12915   0.15065   0.18274
 Alpha virt. eigenvalues --    0.18274   0.21918   0.21918   0.24266   0.27255

  Beta  occ. eigenvalues --  -10.54123 -10.54111  -0.79893  -0.72040  -0.48605
  Beta  occ. eigenvalues --   -0.48604  -0.43596  -0.43595  -0.35101
  Beta virt. eigenvalues --    0.02289   0.03249   0.05640   0.05640   0.08556
  Beta virt. eigenvalues --    0.08557   0.09351   0.12915   0.15065   0.18274
  Beta virt. eigenvalues --    0.18274   0.21918   0.21918   0.24266   0.27255

 Mulliken charges and spin densities:
               1          2
     1  C   -0.493324  -0.000000
     2  C   -0.493324   0.000000
     3  H    0.164442  -0.000000
     4  H    0.164441   0.000000
     5  H    0.164441  -0.000000
     6  H    0.164441  -0.000000
     7  H    0.164442   0.000000
     8  H    0.164441   0.000000
 Sum of Mulliken charges =  -0.00000   0.00000

 Dipole moment (field-independent basis, Debye):
    X=              0.0000    Y=              0.0000    Z=             -0.0000  Tot=              0.0000
 Quadrupole moment (field-independent basis, Debye-Ang):
   XX=            -15.5985   YY=            -14.9060   ZZ=            -14.9080
   XY=             -0.0021   XZ=              0.0372   YZ=              0.0001

 Normal termination of Gaussian 16 at Tue Nov 19 12:49:09 2024.
