 Gaussian 16, Revision A.03,
 Gaussian 16:  ES64L-G16RevA.03 25-Dec-2016

 ---------------------------------------
 #p UM062X/6-311+G** force int=superfine
 ---------------------------------------

 -------------------
 Title Card Required
 -------------------
 Symbolic Z-matrix:
 Charge =  1 Multiplicity = 2

                         Standard orientation:
 ---------------------------------------------------------------------
 Center     Atomic      Atomic             Coordinates (Angstroms)
 Number     Number       Type             X           Y           Z
 ---------------------------------------------------------------------
      1          7           0        0.000000    0.000000    1.105391
      2          7           0        0.000000    0.000000   -1.105391
 ---------------------------------------------------------------------

 SCF Done:  E(UM062X) =  -108.514664531     A.U. after   10 cycles

 Unable to determine electronic state:  partially filled degenerate orbitals.
 Alpha  occ. eigenvalues --  -15.36704 -15.36690  -1.27702  -1.20518  -0.75700
 Alpha  occ. eigenvalues --   -0.73343  -0.70738
 Alpha virt. eigenvalues --   -0.57622  -0.54948  -0.48860  -0.13312  -0.09025
 Alpha virt. eigenvalues --   -0.08805  -0.08768  -0.03542  -0.03134  -0.02856
 Alpha virt. eigenvalues --    0.05411   0.44130   0.45657   0.51435   0.52710

  Beta  occ. eigenvalues --  -15.36245 -15.36235  -1.23862  -1.17092  -0.73794
  Beta  occ. eigenvalues --   -0.69021
  Beta virt. eigenvalues --   -0.53146  -0.49814  -0.47128  -0.45885  -0.14715
  Beta virt. eigenvalues --   -0.09296  -0.09213  -0.09061  -0.04206  -0.03121
  Beta virt. eigenvalues --   -0.03120   0.04017   0.45880   0.45895   0.52111

 Mulliken charges and spin densities:
               1          2
     1  N    0.500000   0.500000
     2  N    0.500000   0.500000
 Sum of Mulliken charges =   1.00000   1.00000

 Dipole moment (field-independent basis, Debye):
    X=              0.0000    Y=              0.0000    Z=             -0.0000  Tot=              0.0000
 Quadrupole moment (field-independent basis, Debye-Ang):
   XX=             -9.9587   YY=             -8.5024   ZZ=             -2.7007
   XY=              0.0000   XZ=             -0.0000   YZ=             -0.0000

 Optimization completed.
    -- Stationary point found.
 Normal termination of Gaussian 16 at Wed Feb 26 13:55:16 2025.
