 Gaussian 16, Revision A.03,
 Gaussian 16:  ES64L-G16RevA.03 25-Dec-2016

 -------------------------------------------------------------------
 #p opt UM062X/6-311+G** nosymm int=superfine SCF=NoVarAcc SCF=tight
 -------------------------------------------------------------------

 -------------------
 Title Card Required
 -------------------
 Symbolic Z-matrix:
 Charge =  1 Multiplicity = 2

 SCF Done:  E(UM062X) =  -79.3134287805     A.U. after   14 cycles
 SCF Done:  E(UM062X) =  -79.3134870690     A.U. after    9 cycles
 SCF Done:  E(UM062X) =  -79.3135040236     A.U. after    8 cycles
 SCF Done:  E(UM062X) =  -79.3135131677     A.U. after    8 cycles
 SCF Done:  E(UM062X) =  -79.3135136950     A.U. after    8 cycles
 Optimization completed.
    -- Stationary point found.

                          Input orientation:
 ---------------------------------------------------------------------
 Center     Atomic      Atomic             Coordinates (Angstroms)
 Number     Number       Type             X           Y           Z
 ---------------------------------------------------------------------
      1          6           0       -4.782675    0.000000    0.000000
      2          6           0        4.782675    0.000000    0.000000
      3          1           0        4.785957   -0.936736    0.542444
      4          1           0       -4.786392   -0.937733   -0.540725
      5          1           0        4.788389    0.938140    0.539993
      6          1           0        4.787158   -0.001413   -1.082456
      7          1           0       -4.787990    0.937185   -0.541637
      8          1           0       -4.787039    0.000349    1.082459
 ---------------------------------------------------------------------

 Alpha  occ. eigenvalues --  -10.79528 -10.79528  -0.98296  -0.98283  -0.69536
 Alpha  occ. eigenvalues --   -0.69534  -0.69534  -0.69532  -0.40326
 Alpha virt. eigenvalues --   -0.37302  -0.09353  -0.09175  -0.05734  -0.05734
 Alpha virt. eigenvalues --   -0.05659  -0.05659  -0.04082  -0.03393   0.03702
 Alpha virt. eigenvalues --    0.03755   0.03756   0.03784   0.03786   0.03964

  Beta  occ. eigenvalues --  -10.79286 -10.79286  -0.95622  -0.95622  -0.68962
  Beta  occ. eigenvalues --   -0.68960  -0.68960  -0.68958
  Beta virt. eigenvalues --   -0.24595  -0.24592  -0.09831  -0.09723  -0.05342
  Beta virt. eigenvalues --   -0.05342  -0.05283  -0.05283  -0.02027  -0.01451
  Beta virt. eigenvalues --    0.04056   0.04057   0.04082   0.04084   0.05182

 Mulliken charges and spin densities:
               1          2
     1  C   -0.192449   0.566861
     2  C   -0.192451   0.566862
     3  H    0.230811  -0.022287
     4  H    0.230809  -0.022287
     5  H    0.230824  -0.022287
     6  H    0.230816  -0.022287
     7  H    0.230827  -0.022286
     8  H    0.230813  -0.022288
 Sum of Mulliken charges =   1.00000   1.00000

 Dipole moment (field-independent basis, Debye):
    X=              0.0000    Y=             -0.0001    Z=              0.0000  Tot=              0.0001
 Quadrupole moment (field-independent basis, Debye-Ang):
   XX=             96.6571   YY=            -11.1254   ZZ=            -11.1259
   XY=              0.0012   XZ=             -0.0002   YZ=             -0.0004

 Normal termination of Gaussian 16 at Tue Dec  3 16:13:10 2024.
