 Gaussian 16, Revision A.03,
 Gaussian 16:  ES64L-G16RevA.03 25-Dec-2016

 --------------------------------------------
 #p opt UM062X/6-311+G** nosymm int=superfine
 --------------------------------------------

 -------------------
 Title Card Required
 -------------------
 Symbolic Z-matrix:
 Charge =  0 Multiplicity = 1

 SCF Done:  E(UM062X) =  -51.7773099438     A.U. after   10 cycles
 SCF Done:  E(UM062X) =  -51.7828475150     A.U. after    9 cycles
 SCF Done:  E(UM062X) =  -51.7863042284     A.U. after   11 cycles
 SCF Done:  E(UM062X) =  -51.7863078341     A.U. after   11 cycles
 SCF Done:  E(UM062X) =  -51.7863074930     A.U. after    8 cycles
 SCF Done:  E(UM062X) =  -51.7863076457     A.U. after   11 cycles
 Optimization completed.
    -- Stationary point found.

                          Input orientation:
 ---------------------------------------------------------------------
 Center     Atomic      Atomic             Coordinates (Angstroms)
 Number     Number       Type             X           Y           Z
 ---------------------------------------------------------------------
      1          5           0       -2.245607    0.000000    0.000000
      2          5           0        2.245607    0.000000    0.000000
      3          1           0       -2.696429   -1.089989    0.000047
      4          1           0        2.696429    1.089974   -0.005823
      5          1           0       -2.696431    1.089988    0.000245
      6          1           0        2.696431   -1.089971    0.006110
 ---------------------------------------------------------------------

 Alpha  occ. eigenvalues --   -7.11657  -7.11657  -0.58066  -0.57881  -0.45487
 Alpha  occ. eigenvalues --   -0.45449  -0.19150
 Alpha virt. eigenvalues --   -0.08692  -0.05167  -0.04444   0.02228   0.03052
 Alpha virt. eigenvalues --    0.03836   0.05319   0.06118   0.07132   0.08417
 Alpha virt. eigenvalues --    0.09942   0.15056   0.15649   0.17263   0.23147

  Beta  occ. eigenvalues --   -7.11657  -7.11657  -0.58066  -0.57881  -0.45487
  Beta  occ. eigenvalues --   -0.45449  -0.19150
  Beta virt. eigenvalues --   -0.08692  -0.05167  -0.04444   0.02228   0.03052
  Beta virt. eigenvalues --    0.03836   0.05319   0.06118   0.07132   0.08417
  Beta virt. eigenvalues --    0.09942   0.15056   0.15649   0.17263   0.23147

 Mulliken charges and spin densities:
               1          2
     1  B   -0.064434  -0.000000
     2  B   -0.064434   0.000000
     3  H    0.032217  -0.000000
     4  H    0.032217   0.000000
     5  H    0.032217  -0.000000
     6  H    0.032217   0.000000
 Sum of Mulliken charges =  -0.00000   0.00000

 Dipole moment (field-independent basis, Debye):
    X=              0.0000    Y=              0.0000    Z=              0.0004  Tot=              0.0004
 Quadrupole moment (field-independent basis, Debye-Ang):
   XX=             -9.9470   YY=            -16.9764   ZZ=            -14.6715
   XY=             -0.0000   XZ=              0.0000   YZ=              0.0062

 Normal termination of Gaussian 16 at Mon Apr 21 17:19:24 2025.
