 Gaussian 16, Revision A.03,
 Gaussian 16:  ES64L-G16RevA.03 25-Dec-2016

 --------------------------------------------
 #p opt UM062X/6-311+G** nosymm int=superfine
 --------------------------------------------

 -------------------
 Title Card Required
 -------------------
 Symbolic Z-matrix:
 Charge =  0 Multiplicity = 1

 SCF Done:  E(UM062X) =  -79.7635940284     A.U. after    8 cycles
 SCF Done:  E(UM062X) =  -79.7741000923     A.U. after    7 cycles
 SCF Done:  E(UM062X) =  -79.7754228391     A.U. after    8 cycles
 Optimization completed.
    -- Stationary point found.

                          Input orientation:
 ---------------------------------------------------------------------
 Center     Atomic      Atomic             Coordinates (Angstroms)
 Number     Number       Type             X           Y           Z
 ---------------------------------------------------------------------
      1          6           0       -0.893350    0.000000    0.000000
      2          6           0        0.893441    0.000000    0.000000
      3          1           0        1.231915   -0.894326    0.517488
      4          1           0       -1.231835   -0.895328   -0.515740
      5          1           0        1.231928    0.895328    0.515739
      6          1           0        1.231870   -0.001010   -1.033265
      7          1           0       -1.231824    0.894326   -0.517488
      8          1           0       -1.231781    0.001009    1.033265
 ---------------------------------------------------------------------

 Alpha  occ. eigenvalues --  -10.53579 -10.53563  -0.81061  -0.71445  -0.48937
 Alpha  occ. eigenvalues --   -0.48937  -0.42700  -0.42700  -0.37305
 Alpha virt. eigenvalues --    0.02248   0.03672   0.05624   0.05624   0.08627
 Alpha virt. eigenvalues --    0.08627   0.09203   0.13481   0.18381   0.18381
 Alpha virt. eigenvalues --    0.18544   0.21739   0.21740   0.24229   0.27538

  Beta  occ. eigenvalues --  -10.53579 -10.53563  -0.81061  -0.71445  -0.48937
  Beta  occ. eigenvalues --   -0.48937  -0.42700  -0.42700  -0.37305
  Beta virt. eigenvalues --    0.02248   0.03672   0.05624   0.05624   0.08627
  Beta virt. eigenvalues --    0.08627   0.09203   0.13481   0.18381   0.18381
  Beta virt. eigenvalues --    0.18544   0.21739   0.21740   0.24229   0.27538

 Mulliken charges and spin densities:
               1          2
     1  C   -0.487654   0.000000
     2  C   -0.487654  -0.000000
     3  H    0.162551   0.000000
     4  H    0.162552   0.000000
     5  H    0.162552   0.000000
     6  H    0.162551  -0.000000
     7  H    0.162551  -0.000000
     8  H    0.162550   0.000000
 Sum of Mulliken charges =  -0.00000  -0.00000

 Dipole moment (field-independent basis, Debye):
    X=              0.0000    Y=             -0.0000    Z=             -0.0000  Tot=              0.0000
 Quadrupole moment (field-independent basis, Debye-Ang):
   XX=            -15.6094   YY=            -14.9325   ZZ=            -14.9326
   XY=              0.0000   XZ=              0.0001   YZ=             -0.0000

 Normal termination of Gaussian 16 at Tue Nov 19 11:59:36 2024.
