 Gaussian 16, Revision A.03,
 Gaussian 16:  ES64L-G16RevA.03 25-Dec-2016

 --------------------------------------------
 #p opt UM062X/6-311+G** nosymm int=superfine
 --------------------------------------------

 -------------------
 Title Card Required
 -------------------
 Symbolic Z-matrix:
 Charge =  0 Multiplicity = 1

 SCF Done:  E(UM062X) =  -797.555791357     A.U. after   10 cycles
 SCF Done:  E(UM062X) =  -797.556006398     A.U. after   10 cycles
 SCF Done:  E(UM062X) =  -797.555971630     A.U. after   10 cycles
 SCF Done:  E(UM062X) =  -797.556078585     A.U. after    9 cycles
 Optimization completed.
    -- Stationary point found.

                          Input orientation:
 ---------------------------------------------------------------------
 Center     Atomic      Atomic             Coordinates (Angstroms)
 Number     Number       Type             X           Y           Z
 ---------------------------------------------------------------------
      1         16           0        0.000779    1.043191   -0.052373
      2         16           0       -0.000779   -1.043191   -0.052373
      3          1           0        0.952949    1.226122    0.879573
      4          1           0       -0.952949   -1.226122    0.879573
 ---------------------------------------------------------------------

 Alpha  occ. eigenvalues --  -89.92739 -89.92739  -8.29234  -8.29227  -6.21405
 Alpha  occ. eigenvalues --   -6.21384  -6.21110  -6.21107  -6.20649  -6.20649
 Alpha  occ. eigenvalues --   -0.90204  -0.75990  -0.51891  -0.47420  -0.41602
 Alpha  occ. eigenvalues --   -0.32419  -0.32393
 Alpha virt. eigenvalues --   -0.01959   0.01470   0.03576   0.04897   0.05278
 Alpha virt. eigenvalues --    0.05933   0.07788   0.07845   0.07994   0.12780
 Alpha virt. eigenvalues --    0.13915   0.28835   0.32385   0.33137   0.33736

  Beta  occ. eigenvalues --  -89.92739 -89.92739  -8.29234  -8.29227  -6.21405
  Beta  occ. eigenvalues --   -6.21384  -6.21110  -6.21107  -6.20649  -6.20649
  Beta  occ. eigenvalues --   -0.90204  -0.75990  -0.51891  -0.47420  -0.41602
  Beta  occ. eigenvalues --   -0.32419  -0.32393
  Beta virt. eigenvalues --   -0.01959   0.01470   0.03576   0.04897   0.05278
  Beta virt. eigenvalues --    0.05933   0.07788   0.07845   0.07994   0.12780
  Beta virt. eigenvalues --    0.13915   0.28835   0.32385   0.33137   0.33736

 Mulliken charges and spin densities:
               1          2
     1  S   -0.084311  -0.000000
     2  S   -0.084311   0.000000
     3  H    0.084311  -0.000000
     4  H    0.084311   0.000000
 Sum of Mulliken charges =  -0.00000   0.00000

 Dipole moment (field-independent basis, Debye):
    X=             -0.0000    Y=              0.0000    Z=              1.5231  Tot=              1.5231
 Quadrupole moment (field-independent basis, Debye-Ang):
   XX=            -27.0961   YY=            -26.9318   ZZ=            -27.4375
   XY=              2.5308   XZ=             -0.0000   YZ=              0.0000

 Normal termination of Gaussian 16 at Wed Apr 16 06:03:21 2025.
