 Gaussian 16, Revision A.03,
 Gaussian 16:  ES64L-G16RevA.03 25-Dec-2016

 --------------------------------------------
 #p opt UM062X/6-311+G** nosymm int=superfine
 --------------------------------------------

 -------------------
 Title Card Required
 -------------------
 Symbolic Z-matrix:
 Charge =  1 Multiplicity = 2

 SCF Done:  E(UM062X) =  -79.3143111726     A.U. after   10 cycles
 SCF Done:  E(UM062X) =  -79.3158110850     A.U. after    9 cycles
 SCF Done:  E(UM062X) =  -79.3158266182     A.U. after    9 cycles
 Optimization completed.
    -- Stationary point found.

                          Input orientation:
 ---------------------------------------------------------------------
 Center     Atomic      Atomic             Coordinates (Angstroms)
 Number     Number       Type             X           Y           Z
 ---------------------------------------------------------------------
      1          6           0       -2.082941    0.000000    0.000000
      2          6           0        2.082941    0.000000    0.000000
      3          1           0        2.107385   -0.937463    0.542589
      4          1           0       -2.105521   -0.938558   -0.540766
      5          1           0        2.106586    0.938653    0.540560
      6          1           0        2.105618   -0.001170   -1.083194
      7          1           0       -2.107442    0.937570   -0.542401
      8          1           0       -2.106624    0.000949    1.083174
 ---------------------------------------------------------------------

 Alpha  occ. eigenvalues --  -10.83187 -10.83186  -1.01780  -1.01526  -0.72867
 Alpha  occ. eigenvalues --   -0.72866  -0.72792  -0.72791  -0.46712
 Alpha virt. eigenvalues --   -0.37770  -0.12526  -0.10100  -0.09218  -0.09218
 Alpha virt. eigenvalues --   -0.06203  -0.06203  -0.04404  -0.02739   0.00286
 Alpha virt. eigenvalues --    0.00289   0.01449   0.01451   0.02446   0.08971

  Beta  occ. eigenvalues --  -10.82963 -10.82963  -0.99121  -0.98978  -0.72335
  Beta  occ. eigenvalues --   -0.72334  -0.72247  -0.72246
  Beta virt. eigenvalues --   -0.32131  -0.26672  -0.16977  -0.10592  -0.10591
  Beta virt. eigenvalues --   -0.10238  -0.06168  -0.06168  -0.05539  -0.01776
  Beta virt. eigenvalues --    0.00133   0.00136   0.01701   0.01703   0.02274

 Mulliken charges and spin densities:
               1          2
     1  C   -0.242929   0.557684
     2  C   -0.242929   0.557684
     3  H    0.247664  -0.019222
     4  H    0.247626  -0.019224
     5  H    0.247646  -0.019227
     6  H    0.247619  -0.019234
     7  H    0.247665  -0.019223
     8  H    0.247637  -0.019237
 Sum of Mulliken charges =   1.00000   1.00000

 Dipole moment (field-independent basis, Debye):
    X=             -0.0000    Y=             -0.0000    Z=             -0.0001  Tot=              0.0001
 Quadrupole moment (field-independent basis, Debye-Ang):
   XX=              9.3053   YY=            -11.1195   ZZ=            -11.1197
   XY=             -0.0020   XZ=              0.0010   YZ=              0.0000

 Normal termination of Gaussian 16 at Sat Nov 16 16:09:10 2024.
