 Gaussian 16, Revision A.03,
 Gaussian 16:  ES64L-G16RevA.03 25-Dec-2016

 --------------------------------------------
 #p opt UM062X/6-311+G** nosymm int=superfine
 --------------------------------------------

 -------------------
 Title Card Required
 -------------------
 Symbolic Z-matrix:
 Charge =  0 Multiplicity = 1

 SCF Done:  E(UM062X) =  -83.1223183122     A.U. after   10 cycles
 SCF Done:  E(UM062X) =  -83.1378935087     A.U. after    9 cycles
 SCF Done:  E(UM062X) =  -83.1413181298     A.U. after    9 cycles
 SCF Done:  E(UM062X) =  -83.1413426768     A.U. after    7 cycles
 Optimization completed.
    -- Stationary point found.

                          Input orientation:
 ---------------------------------------------------------------------
 Center     Atomic      Atomic             Coordinates (Angstroms)
 Number     Number       Type             X           Y           Z
 ---------------------------------------------------------------------
      1          5           0       -1.877429    0.000000    0.000000
      2          7           0        1.877429    0.000000    0.000000
      3          1           0        2.241567   -0.945256    0.000005
      4          1           0       -1.891139   -0.593954    1.028735
      5          1           0        2.241463    0.472675   -0.818639
      6          1           0        2.241450    0.472678    0.818643
      7          1           0       -1.891156    1.187885    0.000010
      8          1           0       -1.891156   -0.593939   -1.028743
 ---------------------------------------------------------------------

 Alpha  occ. eigenvalues --  -14.72978  -7.04151  -0.96229  -0.57368  -0.54060
 Alpha  occ. eigenvalues --   -0.54060  -0.39794  -0.39794  -0.34347
 Alpha virt. eigenvalues --   -0.01981   0.02510   0.04788   0.04788   0.05190
 Alpha virt. eigenvalues --    0.08502   0.10764   0.10764   0.17519   0.17873
 Alpha virt. eigenvalues --    0.17873   0.19272   0.19272   0.22739   0.27424

  Beta  occ. eigenvalues --  -14.72978  -7.04151  -0.96229  -0.57368  -0.54060
  Beta  occ. eigenvalues --   -0.54060  -0.39794  -0.39794  -0.34347
  Beta virt. eigenvalues --   -0.01981   0.02510   0.04788   0.04788   0.05190
  Beta virt. eigenvalues --    0.08502   0.10764   0.10764   0.17519   0.17873
  Beta virt. eigenvalues --    0.17873   0.19272   0.19272   0.22739   0.27424

 Mulliken charges and spin densities:
               1          2
     1  B    0.018081  -0.000000
     2  N   -0.731226  -0.000000
     3  H    0.245850   0.000000
     4  H   -0.008133  -0.000000
     5  H    0.245851   0.000000
     6  H    0.245851   0.000000
     7  H   -0.008141   0.000000
     8  H   -0.008133   0.000000
 Sum of Mulliken charges =  -0.00000  -0.00000

 Dipole moment (field-independent basis, Debye):
    X=              1.9764    Y=              0.0001    Z=              0.0000  Tot=              1.9764
 Quadrupole moment (field-independent basis, Debye-Ang):
   XX=            -10.2487   YY=            -15.6552   ZZ=            -15.6553
   XY=              0.0001   XZ=             -0.0000   YZ=              0.0000

 Normal termination of Gaussian 16 at Mon Apr 21 17:39:35 2025.
