 Gaussian 16, Revision A.03,
 Gaussian 16:  ES64L-G16RevA.03 25-Dec-2016

 --------------------------------------------
 #p opt UM062X/6-311+G** nosymm int=superfine
 --------------------------------------------

 -------------------
 Title Card Required
 -------------------
 Symbolic Z-matrix:
 Charge =  0 Multiplicity = 1

 SCF Done:  E(UM062X) =  -77.3096071022     A.U. after    9 cycles
 SCF Done:  E(UM062X) =  -77.3119435266     A.U. after    9 cycles
 SCF Done:  E(UM062X) =  -77.3119711286     A.U. after    8 cycles
 Optimization completed.
    -- Stationary point found.

                          Input orientation:
 ---------------------------------------------------------------------
 Center     Atomic      Atomic             Coordinates (Angstroms)
 Number     Number       Type             X           Y           Z
 ---------------------------------------------------------------------
      1          6           0       -0.622456    0.000000    0.000000
      2          6           0        0.622456    0.000000    0.000000
      3          1           0       -1.687878    0.000000   -0.000000
      4          1           0        1.687878    0.000000   -0.000000
 ---------------------------------------------------------------------

 Alpha  occ. eigenvalues --  -10.56169 -10.55967  -0.84421  -0.65325  -0.56684
 Alpha  occ. eigenvalues --   -0.35067  -0.35067
 Alpha virt. eigenvalues --    0.02580   0.02733   0.03843   0.03843   0.07713
 Alpha virt. eigenvalues --    0.07713   0.09298   0.14097   0.14097   0.15390
 Alpha virt. eigenvalues --    0.19564   0.24256   0.38774   0.44936   0.57247

  Beta  occ. eigenvalues --  -10.56169 -10.55967  -0.84421  -0.65325  -0.56684
  Beta  occ. eigenvalues --   -0.35067  -0.35067
  Beta virt. eigenvalues --    0.02580   0.02733   0.03843   0.03843   0.07713
  Beta virt. eigenvalues --    0.07713   0.09298   0.14097   0.14097   0.15390
  Beta virt. eigenvalues --    0.19564   0.24256   0.38774   0.44936   0.57247

 Mulliken charges and spin densities:
               1          2
     1  C   -0.183260   0.000000
     2  C   -0.183260  -0.000000
     3  H    0.183260   0.000000
     4  H    0.183260  -0.000000
 Sum of Mulliken charges =  -0.00000   0.00000

 Dipole moment (field-independent basis, Debye):
    X=             -0.0000    Y=              0.0000    Z=             -0.0000  Tot=              0.0000
 Quadrupole moment (field-independent basis, Debye-Ang):
   XX=             -6.7236   YY=            -14.0226   ZZ=            -14.0226
   XY=              0.0000   XZ=             -0.0000   YZ=             -0.0000

 Normal termination of Gaussian 16 at Tue Dec  3 20:03:51 2024.
