 Gaussian 16, Revision A.03,
 Gaussian 16:  ES64L-G16RevA.03 25-Dec-2016

 --------------------------------------------
 #p opt UM062X/6-311+G** nosymm int=superfine
 --------------------------------------------

 -------------------
 Title Card Required
 -------------------
 Symbolic Z-matrix:
 Charge =  1 Multiplicity = 2

 SCF Done:  E(UM062X) =  -79.3234941088     A.U. after   10 cycles
 SCF Done:  E(UM062X) =  -79.3241498783     A.U. after    9 cycles
 SCF Done:  E(UM062X) =  -79.3241520855     A.U. after    8 cycles
 Optimization completed.
    -- Stationary point found.

                          Input orientation:
 ---------------------------------------------------------------------
 Center     Atomic      Atomic             Coordinates (Angstroms)
 Number     Number       Type             X           Y           Z
 ---------------------------------------------------------------------
      1          6           0       -1.797607    0.000000    0.000000
      2          6           0        1.797607    0.000000    0.000000
      3          1           0        1.831628   -0.937652    0.542686
      4          1           0       -1.830123   -0.938754   -0.540868
      5          1           0        1.830996    0.938846    0.540657
      6          1           0        1.830128   -0.001164   -1.083415
      7          1           0       -1.831675    0.937751   -0.542513
      8          1           0       -1.830954    0.000940    1.083391
 ---------------------------------------------------------------------

 Alpha  occ. eigenvalues --  -10.84183 -10.84181  -1.02759  -1.02169  -0.73712
 Alpha  occ. eigenvalues --   -0.73711  -0.73472  -0.73472  -0.49234
 Alpha virt. eigenvalues --   -0.37082  -0.13182  -0.10213  -0.09813  -0.09812
 Alpha virt. eigenvalues --   -0.06242  -0.06242  -0.04527  -0.03175  -0.00793
 Alpha virt. eigenvalues --   -0.00791   0.01281   0.01283   0.03435   0.08221

  Beta  occ. eigenvalues --  -10.83972 -10.83972  -1.00077  -0.99687  -0.73205
  Beta  occ. eigenvalues --   -0.73204  -0.72947  -0.72947
  Beta virt. eigenvalues --   -0.32738  -0.26465  -0.15883  -0.11108  -0.11107
  Beta virt. eigenvalues --   -0.10157  -0.06289  -0.06289  -0.04994  -0.02245
  Beta virt. eigenvalues --   -0.01135  -0.01132   0.01560   0.01562   0.03572

 Mulliken charges and spin densities:
               1          2
     1  C   -0.261551   0.559415
     2  C   -0.261551   0.559415
     3  H    0.253875  -0.019797
     4  H    0.253833  -0.019803
     5  H    0.253856  -0.019802
     6  H    0.253820  -0.019816
     7  H    0.253876  -0.019797
     8  H    0.253842  -0.019815
 Sum of Mulliken charges =   1.00000   1.00000

 Dipole moment (field-independent basis, Debye):
    X=              0.0000    Y=             -0.0000    Z=             -0.0001  Tot=              0.0001
 Quadrupole moment (field-independent basis, Debye-Ang):
   XX=              4.3680   YY=            -11.0929   ZZ=            -11.0931
   XY=             -0.0016   XZ=              0.0010   YZ=             -0.0000

 Normal termination of Gaussian 16 at Wed Nov 13 12:49:49 2024.
