 Gaussian 16, Revision A.03,
 Gaussian 16:  ES64L-G16RevA.03 25-Dec-2016

 ---------------------------------------------------
 #p UM062X/6-311+G** force int=superfine pop=saveNBO
 ---------------------------------------------------

 -------------------
 Title Card Required
 -------------------
 Symbolic Z-matrix:
 Charge =  0 Multiplicity = 1

                         Standard orientation:
 ---------------------------------------------------------------------
 Center     Atomic      Atomic             Coordinates (Angstroms)
 Number     Number       Type             X           Y           Z
 ---------------------------------------------------------------------
      1          6           0       -1.021503   -0.000035   -0.000006
      2         16           0        0.582776   -0.000026   -0.000006
      3          1           0       -1.597150    0.924999   -0.000006
      4          1           0       -1.598254   -0.924377    0.000146
 ---------------------------------------------------------------------

 SCF Done:  E(UM062X) =  -437.441704118     A.U. after   10 cycles

 The electronic state is 1-A.
 Alpha  occ. eigenvalues --  -89.89813 -10.61483  -8.26470  -6.18536  -6.18465
 Alpha  occ. eigenvalues --   -6.17886  -0.89948  -0.68504  -0.53926  -0.45969
 Alpha  occ. eigenvalues --   -0.38087  -0.29203
 Alpha virt. eigenvalues --   -0.06130   0.01674   0.04735   0.04855   0.05478
 Alpha virt. eigenvalues --    0.08067   0.08893   0.10406   0.15194   0.16536
 Alpha virt. eigenvalues --    0.19013   0.20558   0.35524   0.36533   0.38061

  Beta  occ. eigenvalues --  -89.89813 -10.61483  -8.26470  -6.18536  -6.18465
  Beta  occ. eigenvalues --   -6.17886  -0.89948  -0.68504  -0.53926  -0.45969
  Beta  occ. eigenvalues --   -0.38087  -0.29203
  Beta virt. eigenvalues --   -0.06130   0.01674   0.04735   0.04855   0.05478
  Beta virt. eigenvalues --    0.08067   0.08893   0.10406   0.15194   0.16536
  Beta virt. eigenvalues --    0.19013   0.20558   0.35524   0.36533   0.38061

 Mulliken charges and spin densities:
               1          2
     1  C   -0.339281   0.000000
     2  S   -0.025531  -0.000000
     3  H    0.182403   0.000000
     4  H    0.182409   0.000000
 Sum of Mulliken charges =  -0.00000  -0.00000

 Dipole moment (field-independent basis, Debye):
    X=             -1.7549    Y=              0.0004    Z=              0.0001  Tot=              1.7549
 Quadrupole moment (field-independent basis, Debye-Ang):
   XX=            -17.4877   YY=            -20.5707   ZZ=            -19.9046
   XY=              0.0013   XZ=             -0.0001   YZ=              0.0001

 Summary of Natural Population Analysis:

                                       Natural Population
                Natural  -----------------------------------------------
    Atom  No    Charge         Core      Valence    Rydberg      Total
 -----------------------------------------------------------------------
      C    1   -0.22711      0.99978     2.21778    0.00956     3.22711
      S    2    0.04291      4.99953     2.93606    0.02150     7.95709
      H    3    0.09209      0.00000     0.40636    0.00155     0.40791
      H    4    0.09211      0.00000     0.40634    0.00155     0.40789
 =======================================================================
   * Total *    0.00000      5.99931     5.96654    0.03415    12.00000

 Optimization completed.
    -- Stationary point found.

 1\1\GINC-NODE01\Force\UM062X\6-311+G(d,p)\C1H2S1\SZHAO\16-Apr-2025\0\\
 #p UM062X/6-311+G** force int=superfine pop=saveNBO\\Title Card Requir
 ed\\0,1\C,-0.80213956,0.,0.\S,0.80213956,0.,0.\H,-1.37778175,-0.925037
 03,0.\H,-1.3788962,0.9243387,-0.00015231\\Version=ES64L-G16RevA.03\Sta
 te=1-A\HF=-437.4417041\S2=0.\S2-1=0.\S2A=0.\RMSD=7.821e-09\RMSF=1.718e
 -04\Dipole=-0.6904482,-0.0001794,-0.0000482\Quadrupole=1.3630203,-0.92
 91199,-0.4339004,-0.000976,0.0000923,0.0000408\PG=C01 [X(C1H2S1)]\\@

 Normal termination of Gaussian 16 at Wed Apr 16 04:14:37 2025.
