 Gaussian 16, Revision A.03,
 Gaussian 16:  ES64L-G16RevA.03 25-Dec-2016

 ----------------------------------------------------------------------
 #p opt UM062X/6-311+G** nosymm int=superfine SCF=(MaxCycle=200,NoVarAc
 c,noincfock) guess=read
 ----------------------------------------------------------------------

 -------------------
 Title Card Required
 -------------------
 Symbolic Z-matrix:
 Charge =  0 Multiplicity = 2

 SCF Done:  E(UM062X) =  -398.729950724     A.U. after   43 cycles
 SCF Done:  E(UM062X) =  -398.729984429     A.U. after   77 cycles
 Optimization completed.
    -- Stationary point found.

                          Input orientation:
 ---------------------------------------------------------------------
 Center     Atomic      Atomic             Coordinates (Angstroms)
 Number     Number       Type             X           Y           Z
 ---------------------------------------------------------------------
      1         16           0        0.839566    0.000082    0.001317
      2          1           0        1.015586    0.082857    1.331305
 ---------------------------------------------------------------------

 Alpha  occ. eigenvalues --  -89.92818  -8.28929  -6.22138  -6.20868  -6.20313
 Alpha  occ. eigenvalues --   -0.82558  -0.47408  -0.37635  -0.33547
 Alpha virt. eigenvalues --    0.03073   0.05389   0.05695   0.06079   0.08423
 Alpha virt. eigenvalues --    0.32500   0.35091   0.35802   0.39778   0.58510
 Alpha virt. eigenvalues --    0.70775   0.73790   0.79095   0.79229   0.98702

  Beta  occ. eigenvalues --  -89.91894  -8.28686  -6.20573  -6.20002  -6.19707
  Beta  occ. eigenvalues --   -0.77592  -0.45737  -0.31433
  Beta virt. eigenvalues --   -0.13304   0.02021   0.05096   0.06138   0.06229
  Beta virt. eigenvalues --    0.08642   0.31765   0.32845   0.35410   0.40478
  Beta virt. eigenvalues --    0.60303   0.75822   0.75951   0.84428   0.86775

 Mulliken charges and spin densities:
               1          2
     1  S   -0.070602   1.028444
     2  H    0.070602  -0.028444
 Sum of Mulliken charges =  -0.00000   1.00000

 Dipole moment (field-independent basis, Debye):
    X=              0.1423    Y=              0.0669    Z=              1.0749  Tot=              1.0863
 Quadrupole moment (field-independent basis, Debye-Ang):
   XX=            -13.7733   YY=            -14.9804   ZZ=            -12.0243
   XY=              1.5132   XZ=              1.0777   YZ=             -0.0074

 1\1\GINC-NODE04\FOpt\UM062X\6-311+G(d,p)\H1S1(2)\SZHAO\12-May-2025\0\\
 #p opt UM062X/6-311+G** nosymm int=superfine SCF=(MaxCycle=200,NoVarAc
 c,noincfock) guess=read\\Title Card Required\\0,2\S,0.8395660535,0.000
 081777,0.0013168249\H,1.0155859465,0.082857223,1.3313051751\\Version=E
 S64L-G16RevA.03\HF=-398.7299844\S2=0.752992\S2-1=0.\S2A=0.750005\RMSD=
 6.927e-09\RMSF=1.517e-04\Dipole=0.0559674,0.0263237,0.4228938\Quadrupo
 le=-0.1343101,-1.0317616,1.1660717,1.1250335,0.8012212,-0.0055272\PG=C
 *V [C*(H1S1)]\\@

 Normal termination of Gaussian 16 at Mon May 12 15:05:19 2025.
