 Gaussian 16, Revision A.03,
 Gaussian 16:  ES64L-G16RevA.03 25-Dec-2016

 ---------------------------------------------------------------------
 #p opt UM062X/6-311+G** nosymm int=superfine SCF=(Tight,MaxCycle=200)
 ---------------------------------------------------------------------

 -------------------
 Title Card Required
 -------------------
 Symbolic Z-matrix:
 Charge =  1 Multiplicity = 2

 SCF Done:  E(UM062X) =  -1615.20285924     A.U. after   22 cycles
 SCF Done:  E(UM062X) =  -1615.35960007     A.U. after   21 cycles
 SCF Done:  E(UM062X) =  -1615.53359423     A.U. after   21 cycles
 SCF Done:  E(UM062X) =  -1615.55485790     A.U. after   19 cycles
 SCF Done:  E(UM062X) =  -1615.54181193     A.U. after   24 cycles
 SCF Done:  E(UM062X) =  -1615.55813196     A.U. after   19 cycles
 SCF Done:  E(UM062X) =  -1615.55903993     A.U. after   22 cycles
 SCF Done:  E(UM062X) =  -1615.55310625     A.U. after   24 cycles
 SCF Done:  E(UM062X) =  -1615.55862302     A.U. after   20 cycles
 SCF Done:  E(UM062X) =  -1615.55989156     A.U. after   16 cycles
 SCF Done:  E(UM062X) =  -1615.56017453     A.U. after   18 cycles
 SCF Done:  E(UM062X) =  -1615.56042035     A.U. after   18 cycles
 SCF Done:  E(UM062X) =  -1615.56044307     A.U. after   17 cycles
 SCF Done:  E(UM062X) =  -1615.56044768     A.U. after   15 cycles
 SCF Done:  E(UM062X) =  -1615.56045286     A.U. after   14 cycles
 SCF Done:  E(UM062X) =  -1615.56045305     A.U. after   12 cycles
 SCF Done:  E(UM062X) =  -1615.56045319     A.U. after   12 cycles
 Optimization completed.
    -- Stationary point found.

                          Input orientation:
 ---------------------------------------------------------------------
 Center     Atomic      Atomic             Coordinates (Angstroms)
 Number     Number       Type             X           Y           Z
 ---------------------------------------------------------------------
      1          6           0       -1.041504    0.000000    0.000000
      2          6           0        1.041504    0.000000    0.000000
      3          6           0        0.000084   -2.183086    0.000035
      4          6           0        0.000155   -3.549353    0.000170
      5          6           0       -1.120502   -4.328348    0.335773
      6          6           0       -1.167092   -1.477004    0.320659
      7          6           0        0.651080   -5.725535   -0.195178
      8          1           0        1.249936   -6.606244   -0.378572
      9          6           0       -1.414967    0.897707    1.115919
     10          6           0       -0.650316   -5.725557    0.196823
     11          1           0       -1.248993   -6.606282    0.380724
     12          6           0        1.120986   -4.328309   -0.334940
     13          6           0        1.167278   -1.477013   -0.320454
     14          6           0        1.622201    2.307792   -1.044567
     15          6           0       -1.424409    0.228016   -1.431348
     16          6           0       -1.859040    3.033678    2.237520
     17          1           0       -2.018631    4.102654    2.157105
     18          6           0       -2.267622   -3.643463    0.685359
     19          1           0       -3.178795   -4.162801    0.960273
     20          6           0       -1.547788    1.494845   -2.073245
     21          6           0        2.286398   -2.209145   -0.665681
     22          1           0        3.218064   -1.703079   -0.896016
     23          6           0        1.424227    0.228537    1.431342
     24          6           0        1.547582    1.495622    2.072776
     25          6           0        2.268134   -3.643399   -0.684394
     26          1           0        3.179459   -4.162710   -0.958854
     27          6           0       -1.622570    2.308025    1.043776
     28          6           0       -1.448884    0.319363    2.405870
     29          1           0       -1.269611   -0.739440    2.513412
     30          6           0        1.600976   -0.901993    2.266645
     31          1           0        1.556071   -1.897526    1.855428
     32          6           0       -1.892444    2.432365    3.471443
     33          1           0       -2.076298    3.017219    4.364224
     34          6           0       -2.286063   -2.209215    0.666223
     35          1           0       -3.217719   -1.703207    0.896714
     36          6           0       -1.767339    1.559177   -3.467697
     37          1           0       -1.836548    2.539463   -3.924696
     38          6           0        1.414604    0.897451   -1.116226
     39          6           0       -1.574880    3.123908   -0.135681
     40          1           0       -1.617064    4.190237    0.064423
     41          6           0       -1.920843    0.434523   -4.243685
     42          1           0       -2.103643    0.518170   -5.307786
     43          6           0       -1.505361    2.784160   -1.440614
     44          1           0       -1.499306    3.617892   -2.136115
     45          6           0        1.767103    1.560480    3.467211
     46          1           0        1.836233    2.540944    3.923841
     47          6           0       -1.679657    1.051316    3.550942
     48          1           0       -1.685666    0.550032    4.511334
     49          6           0       -1.601067   -0.902846   -2.266212
     50          1           0       -1.556051   -1.898218   -1.854607
     51          6           0        1.920690    0.436126    4.243616
     52          1           0        2.103494    0.520165    5.307685
     53          6           0        1.858576    3.033025   -2.238588
     54          1           0        2.018172    4.102029   -2.158578
     55          6           0        1.851921   -0.809533    3.622183
     56          1           0        1.992065   -1.718046    4.195188
     57          6           0        1.891892    2.431266   -3.472304
     58          1           0        2.075728    3.015797   -4.365300
     59          6           0        1.574606    3.124045    0.134627
     60          1           0        1.616791    4.190306   -0.065832
     61          6           0       -1.851985   -0.810912   -3.621792
     62          1           0       -1.991990   -1.719654   -4.194467
     63          6           0        1.505158    2.784720    1.439687
     64          1           0        1.499087    3.618695    2.134895
     65          6           0        1.448601    0.318617   -2.405949
     66          1           0        1.269529   -0.740269   -2.513048
     67          6           0        1.679225    1.050172   -3.551306
     68          1           0        1.685248    0.548542   -4.511518
 ---------------------------------------------------------------------

 Alpha  occ. eigenvalues --  -10.71987 -10.71981 -10.68840 -10.68840 -10.68589
 Alpha  occ. eigenvalues --  -10.68589 -10.68523 -10.68522 -10.67807 -10.67806
 Alpha  occ. eigenvalues --  -10.67083 -10.67082 -10.66893 -10.66892 -10.66582
 Alpha  occ. eigenvalues --  -10.66581 -10.66147 -10.66146 -10.66118 -10.66117
 Alpha  occ. eigenvalues --  -10.66005 -10.66005 -10.65898 -10.65898 -10.65621
 Alpha  occ. eigenvalues --  -10.65621 -10.65586 -10.65585 -10.65543 -10.65543
 Alpha  occ. eigenvalues --  -10.65336 -10.65335 -10.65280 -10.65279 -10.65219
 Alpha  occ. eigenvalues --  -10.65219 -10.64913 -10.64913 -10.64470 -10.64056
 Alpha  occ. eigenvalues --  -10.63960 -10.62700  -1.13003  -1.10413  -1.09852
 Alpha  occ. eigenvalues --   -1.08542  -1.07862  -1.06185  -1.04241  -1.02800
 Alpha  occ. eigenvalues --   -1.02345  -1.00688  -1.00112  -0.97940  -0.97775
 Alpha  occ. eigenvalues --   -0.96965  -0.96228  -0.94890  -0.93451  -0.93416
 Alpha  occ. eigenvalues --   -0.92667  -0.91895  -0.87893  -0.87012  -0.84985
 Alpha  occ. eigenvalues --   -0.84770  -0.82774  -0.81633  -0.81170  -0.79959
 Alpha  occ. eigenvalues --   -0.79744  -0.79520  -0.77784  -0.76394  -0.76171
 Alpha  occ. eigenvalues --   -0.75476  -0.75286  -0.73847  -0.70139  -0.69977
 Alpha  occ. eigenvalues --   -0.69027  -0.68246  -0.67781  -0.67581  -0.67083
 Alpha  occ. eigenvalues --   -0.66825  -0.65515  -0.65214  -0.64990  -0.64801
 Alpha  occ. eigenvalues --   -0.63593  -0.63070  -0.62265  -0.62164  -0.61482
 Alpha  occ. eigenvalues --   -0.61309  -0.60687  -0.60229  -0.60217  -0.59940
 Alpha  occ. eigenvalues --   -0.59606  -0.58844  -0.58548  -0.58057  -0.57762
 Alpha  occ. eigenvalues --   -0.57366  -0.56157  -0.55856  -0.55776  -0.55688
 Alpha  occ. eigenvalues --   -0.54872  -0.54595  -0.53836  -0.52897  -0.52770
 Alpha  occ. eigenvalues --   -0.52562  -0.52169  -0.52013  -0.51669  -0.51080
 Alpha  occ. eigenvalues --   -0.50913  -0.50867  -0.50576  -0.49254  -0.48791
 Alpha  occ. eigenvalues --   -0.48628  -0.48482  -0.48137  -0.44285  -0.43796
 Alpha  occ. eigenvalues --   -0.43347  -0.43186  -0.40887  -0.40083  -0.39589
 Alpha  occ. eigenvalues --   -0.38017  -0.37871  -0.37177  -0.35074
 Alpha virt. eigenvalues --   -0.15984  -0.15545  -0.15113  -0.14939  -0.10137
 Alpha virt. eigenvalues --   -0.10032  -0.08752  -0.08693  -0.08328  -0.07700
 Alpha virt. eigenvalues --   -0.07689  -0.07504  -0.06927  -0.06553  -0.06338

  Beta  occ. eigenvalues --  -10.71909 -10.71905 -10.68813 -10.68812 -10.68550
  Beta  occ. eigenvalues --  -10.68550 -10.68517 -10.68515 -10.67783 -10.67782
  Beta  occ. eigenvalues --  -10.67056 -10.67055 -10.66859 -10.66859 -10.66582
  Beta  occ. eigenvalues --  -10.66582 -10.66136 -10.66136 -10.66095 -10.66095
  Beta  occ. eigenvalues --  -10.65993 -10.65993 -10.65900 -10.65899 -10.65610
  Beta  occ. eigenvalues --  -10.65610 -10.65590 -10.65590 -10.65556 -10.65556
  Beta  occ. eigenvalues --  -10.65330 -10.65330 -10.65277 -10.65276 -10.65216
  Beta  occ. eigenvalues --  -10.65215 -10.64909 -10.64909 -10.64463 -10.64056
  Beta  occ. eigenvalues --  -10.63959 -10.62702  -1.12863  -1.10302  -1.09667
  Beta  occ. eigenvalues --   -1.08403  -1.07728  -1.06055  -1.04150  -1.02601
  Beta  occ. eigenvalues --   -1.02164  -1.00561  -0.99976  -0.97805  -0.97655
  Beta  occ. eigenvalues --   -0.96846  -0.96127  -0.94849  -0.93316  -0.93305
  Beta  occ. eigenvalues --   -0.92514  -0.91769  -0.87625  -0.86785  -0.84872
  Beta  occ. eigenvalues --   -0.84664  -0.82709  -0.81515  -0.81092  -0.79842
  Beta  occ. eigenvalues --   -0.79669  -0.79447  -0.77636  -0.76206  -0.76004
  Beta  occ. eigenvalues --   -0.75316  -0.75255  -0.73726  -0.70029  -0.69827
  Beta  occ. eigenvalues --   -0.68932  -0.68160  -0.67666  -0.67482  -0.66950
  Beta  occ. eigenvalues --   -0.66715  -0.65414  -0.65112  -0.64868  -0.64676
  Beta  occ. eigenvalues --   -0.63270  -0.63026  -0.62191  -0.62054  -0.61246
  Beta  occ. eigenvalues --   -0.61130  -0.60543  -0.60163  -0.60100  -0.59861
  Beta  occ. eigenvalues --   -0.59460  -0.58647  -0.58470  -0.57935  -0.57381
  Beta  occ. eigenvalues --   -0.57227  -0.56045  -0.55744  -0.55670  -0.55116
  Beta  occ. eigenvalues --   -0.54844  -0.54114  -0.53507  -0.52787  -0.52673
  Beta  occ. eigenvalues --   -0.52501  -0.52084  -0.51877  -0.51203  -0.50985
  Beta  occ. eigenvalues --   -0.50758  -0.50662  -0.49758  -0.49099  -0.48675
  Beta  occ. eigenvalues --   -0.48578  -0.48313  -0.47648  -0.43696  -0.43008
  Beta  occ. eigenvalues --   -0.42900  -0.42814  -0.40494  -0.40032  -0.38952
  Beta  occ. eigenvalues --   -0.37590  -0.37243  -0.36710
  Beta virt. eigenvalues --   -0.25452  -0.15496  -0.15475  -0.14963  -0.14329
  Beta virt. eigenvalues --   -0.10004  -0.09634  -0.08638  -0.08360  -0.08190
  Beta virt. eigenvalues --   -0.07578  -0.07557  -0.07422  -0.06544  -0.06354

 Mulliken charges and spin densities:
               1          2
     1  C   -0.008241   0.052328
     2  C   -0.008360   0.052292
     3  C    0.133799   0.002254
     4  C    0.122153  -0.004196
     5  C    0.127828   0.007366
     6  C    0.148066   0.004021
     7  C   -0.301250   0.001240
     8  H    0.175858  -0.000067
     9  C    0.177675   0.066492
    10  C   -0.301059   0.001237
    11  H    0.175857  -0.000067
    12  C    0.127744   0.007363
    13  C    0.147726   0.004016
    14  C    0.010633   0.050022
    15  C    0.196211   0.039258
    16  C   -0.099599   0.009022
    17  H    0.165137  -0.000401
    18  C   -0.489673   0.000318
    19  H    0.174624   0.000459
    20  C    0.206138   0.056377
    21  C   -0.179316   0.012947
    22  H    0.174436  -0.000530
    23  C    0.196165   0.039281
    24  C    0.206161   0.056361
    25  C   -0.489689   0.000318
    26  H    0.174625   0.000459
    27  C    0.010734   0.049999
    28  C   -0.102415  -0.025101
    29  H    0.198326   0.000493
    30  C   -0.303451   0.000831
    31  H    0.218288   0.000237
    32  C   -0.293157   0.027962
    33  H    0.180514  -0.001441
    34  C   -0.179475   0.012957
    35  H    0.174446  -0.000530
    36  C   -0.153219  -0.013873
    37  H    0.163037   0.000292
    38  C    0.177735   0.066517
    39  C   -0.187985   0.090812
    40  H    0.168793  -0.006536
    41  C   -0.252373   0.017990
    42  H    0.178109  -0.000692
    43  C   -0.158856   0.055216
    44  H    0.161698  -0.003280
    45  C   -0.153133  -0.013866
    46  H    0.163041   0.000292
    47  C   -0.161281   0.059786
    48  H    0.174093  -0.004333
    49  C   -0.303369   0.000830
    50  H    0.218280   0.000237
    51  C   -0.252352   0.018000
    52  H    0.178110  -0.000693
    53  C   -0.099600   0.008994
    54  H    0.165143  -0.000400
    55  C   -0.111557   0.004348
    56  H    0.175017  -0.000583
    57  C   -0.293209   0.027969
    58  H    0.180516  -0.001441
    59  C   -0.187836   0.090817
    60  H    0.168803  -0.006536
    61  C   -0.111558   0.004341
    62  H    0.175016  -0.000583
    63  C   -0.158876   0.055240
    64  H    0.161697  -0.003281
    65  C   -0.102479  -0.025107
    66  H    0.198362   0.000493
    67  C   -0.161322   0.059788
    68  H    0.174097  -0.004334
 Sum of Mulliken charges =   1.00000   1.00000

 Dipole moment (field-independent basis, Debye):
    X=              0.0005    Y=              2.9996    Z=              0.0002  Tot=              2.9996
 Quadrupole moment (field-independent basis, Debye-Ang):
   XX=           -222.4173   YY=           -174.2270   ZZ=           -177.1861
   XY=             -0.0031   XZ=             -1.7533   YZ=             -0.0021

 Normal termination of Gaussian 16 at Fri Mar 21 11:32:23 2025.
