 Gaussian 16, Revision A.03,
 Gaussian 16:  ES64L-G16RevA.03 25-Dec-2016

 --------------------------------------------
 #p opt UM062X/6-311+G** nosymm int=superfine
 --------------------------------------------

 -------------------
 Title Card Required
 -------------------
 Symbolic Z-matrix:
 Charge =  0 Multiplicity = 1

 SCF Done:  E(UM062X) =  -582.380697167     A.U. after   10 cycles
 SCF Done:  E(UM062X) =  -582.382951180     A.U. after    9 cycles
 SCF Done:  E(UM062X) =  -582.383550785     A.U. after    9 cycles
 Optimization completed.
    -- Stationary point found.

                          Input orientation:
 ---------------------------------------------------------------------
 Center     Atomic      Atomic             Coordinates (Angstroms)
 Number     Number       Type             X           Y           Z
 ---------------------------------------------------------------------
      1         14           0       -2.244819    0.000000    0.000000
      2         14           0        2.244819    0.000000    0.000000
      3          1           0        2.650547   -1.418638   -0.000055
      4          1           0       -2.650500   -0.709228    1.228653
      5          1           0        2.650634    0.709400   -1.228510
      6          1           0        2.650509    0.709281    1.228619
      7          1           0       -2.650551    1.418637   -0.000110
      8          1           0       -2.650641   -0.709455   -1.228476
 ---------------------------------------------------------------------

 Alpha  occ. eigenvalues --  -67.01871 -67.01871  -5.56762  -5.56761  -3.87995
 Alpha  occ. eigenvalues --   -3.87995  -3.87758  -3.87758  -3.87758  -3.87758
 Alpha  occ. eigenvalues --   -0.61145  -0.60827  -0.42080  -0.42080  -0.42007
 Alpha  occ. eigenvalues --   -0.42007  -0.22073
 Alpha virt. eigenvalues --   -0.10520   0.02062   0.02934   0.02934   0.03289
 Alpha virt. eigenvalues --    0.05086   0.05086   0.06021   0.06756   0.07456
 Alpha virt. eigenvalues --    0.07456   0.08657   0.08657   0.12037   0.15920

  Beta  occ. eigenvalues --  -67.01871 -67.01871  -5.56762  -5.56761  -3.87995
  Beta  occ. eigenvalues --   -3.87995  -3.87758  -3.87758  -3.87758  -3.87758
  Beta  occ. eigenvalues --   -0.61145  -0.60827  -0.42080  -0.42080  -0.42007
  Beta  occ. eigenvalues --   -0.42007  -0.22073
  Beta virt. eigenvalues --   -0.10520   0.02062   0.02934   0.02934   0.03289
  Beta virt. eigenvalues --    0.05086   0.05086   0.06021   0.06756   0.07456
  Beta virt. eigenvalues --    0.07456   0.08657   0.08657   0.12037   0.15920

 Mulliken charges and spin densities:
               1          2
     1  Si   0.267928   0.000000
     2  Si   0.267928  -0.000000
     3  H   -0.089308  -0.000000
     4  H   -0.089310   0.000000
     5  H   -0.089310  -0.000000
     6  H   -0.089310  -0.000000
     7  H   -0.089308   0.000000
     8  H   -0.089310   0.000000
 Sum of Mulliken charges =  -0.00000   0.00000

 Dipole moment (field-independent basis, Debye):
    X=              0.0000    Y=             -0.0000    Z=              0.0000  Tot=              0.0000
 Quadrupole moment (field-independent basis, Debye-Ang):
   XX=            -28.1286   YY=            -32.1519   ZZ=            -32.1520
   XY=             -0.0003   XZ=              0.0000   YZ=              0.0000

 Normal termination of Gaussian 16 at Mon Apr 21 20:15:52 2025.
