 Gaussian 16, Revision A.03,
 Gaussian 16:  ES64L-G16RevA.03 25-Dec-2016

 --------------------------------------------
 #p opt UM062X/6-311+G** nosymm int=superfine
 --------------------------------------------

 -------------------
 Title Card Required
 -------------------
 Symbolic Z-matrix:
 Charge =  1 Multiplicity = 2

 SCF Done:  E(UM062X) =  -580.898962429     A.U. after   11 cycles
 SCF Done:  E(UM062X) =  -580.899377086     A.U. after    9 cycles
 SCF Done:  E(UM062X) =  -580.899522791     A.U. after   14 cycles
 SCF Done:  E(UM062X) =  -580.899504176     A.U. after   15 cycles
 SCF Done:  E(UM062X) =  -580.899551849     A.U. after   18 cycles
 SCF Done:  E(UM062X) =  -580.908762849     A.U. after   20 cycles
 SCF Done:  E(UM062X) =  -580.918003634     A.U. after   15 cycles
 SCF Done:  E(UM062X) =  -580.920683476     A.U. after   15 cycles
 SCF Done:  E(UM062X) =  -580.920975539     A.U. after   15 cycles
 SCF Done:  E(UM062X) =  -580.921324349     A.U. after   15 cycles
 SCF Done:  E(UM062X) =  -580.922147549     A.U. after   14 cycles
 SCF Done:  E(UM062X) =  -580.924320199     A.U. after   15 cycles
 SCF Done:  E(UM062X) =  -580.924464710     A.U. after   14 cycles
 SCF Done:  E(UM062X) =  -580.924531195     A.U. after   14 cycles
 SCF Done:  E(UM062X) =  -580.924552601     A.U. after   13 cycles
 SCF Done:  E(UM062X) =  -580.924552983     A.U. after   10 cycles
 Optimization completed.
    -- Stationary point found.

                          Input orientation:
 ---------------------------------------------------------------------
 Center     Atomic      Atomic             Coordinates (Angstroms)
 Number     Number       Type             X           Y           Z
 ---------------------------------------------------------------------
      1         14           0       -1.566295    0.000000    0.000000
      2         14           0        1.566295    0.000000    0.000000
      3          1           0       -1.833357   -1.254720    0.731607
      4          1           0        2.432503    1.200162   -0.051913
      5          1           0       -1.833316    1.255186    0.730821
      6          1           0        2.432458   -1.200068   -0.054716
 ---------------------------------------------------------------------

 Alpha  occ. eigenvalues --  -67.25845 -67.25840  -5.80355  -5.80217  -4.11786
 Alpha  occ. eigenvalues --   -4.11673  -4.11338  -4.11080  -4.11056  -4.10886
 Alpha  occ. eigenvalues --   -0.81204  -0.78706  -0.62889  -0.61466  -0.53031
 Alpha  occ. eigenvalues --   -0.48215
 Alpha virt. eigenvalues --   -0.28196  -0.25514  -0.13722  -0.12503  -0.10219
 Alpha virt. eigenvalues --   -0.08834  -0.08692  -0.08144  -0.07712  -0.07560
 Alpha virt. eigenvalues --   -0.06308  -0.05943  -0.05737  -0.02074   0.12286

  Beta  occ. eigenvalues --  -67.25815 -67.25250  -5.80337  -5.79795  -4.11769
  Beta  occ. eigenvalues --   -4.11135  -4.11072  -4.11015  -4.10682  -4.10285
  Beta  occ. eigenvalues --   -0.79677  -0.76723  -0.61819  -0.61133  -0.51123
  Beta virt. eigenvalues --   -0.30399  -0.27272  -0.23965  -0.13624  -0.13353
  Beta virt. eigenvalues --   -0.10296  -0.08967  -0.08515  -0.07771  -0.07259
  Beta virt. eigenvalues --   -0.06993  -0.06053  -0.05947  -0.03993  -0.02440

 Mulliken charges and spin densities:
               1          2
     1  Si   0.512439   0.872696
     2  Si   0.505070   0.030425
     3  H    0.001163   0.045203
     4  H   -0.009912   0.003243
     5  H    0.001154   0.045213
     6  H   -0.009915   0.003221
 Sum of Mulliken charges =   1.00000   1.00000

 Dipole moment (field-independent basis, Debye):
    X=              0.3222    Y=              0.0000    Z=              0.0715  Tot=              0.3300
 Quadrupole moment (field-independent basis, Debye-Ang):
   XX=             -8.3449   YY=            -24.8455   ZZ=            -23.1481
   XY=             -0.0001   XZ=              0.0845   YZ=             -0.0028

 Normal termination of Gaussian 16 at Mon Apr 21 20:26:14 2025.
