 Gaussian 16, Revision A.03,
 Gaussian 16:  ES64L-G16RevA.03 25-Dec-2016

 --------------------------------------------
 #p opt UM062X/6-311+G** nosymm int=superfine
 --------------------------------------------

 -------------------
 Title Card Required
 -------------------
 Symbolic Z-matrix:
 Charge =  0 Multiplicity = 1

 SCF Done:  E(UM062X) =  -76.8783344297     A.U. after   15 cycles
 SCF Done:  E(UM062X) =  -76.8790904076     A.U. after   15 cycles
 SCF Done:  E(UM062X) =  -76.8803650900     A.U. after   16 cycles
 SCF Done:  E(UM062X) =  -76.8807804913     A.U. after   16 cycles
 SCF Done:  E(UM062X) =  -76.8809058305     A.U. after   16 cycles
 SCF Done:  E(UM062X) =  -76.8809201701     A.U. after   19 cycles
 SCF Done:  E(UM062X) =  -76.8809205252     A.U. after   17 cycles
 SCF Done:  E(UM062X) =  -76.8809205357     A.U. after   16 cycles
 Optimization completed.
    -- Stationary point found.

                          Input orientation:
 ---------------------------------------------------------------------
 Center     Atomic      Atomic             Coordinates (Angstroms)
 Number     Number       Type             X           Y           Z
 ---------------------------------------------------------------------
      1          6           0       -1.782625    0.000000    0.000000
      2          6           0        1.782625    0.000000    0.000000
      3          1           0       -1.623638   -0.655279    0.891633
      4          1           0        1.623628    0.655658   -0.891352
 ---------------------------------------------------------------------

 Alpha  occ. eigenvalues --  -10.67650 -10.67648  -0.72994  -0.72330  -0.39124
 Alpha  occ. eigenvalues --   -0.38828  -0.24214
 Alpha virt. eigenvalues --   -0.12153  -0.10424  -0.09389   0.03317   0.04652
 Alpha virt. eigenvalues --    0.07242   0.07352   0.09342   0.09764   0.10973
 Alpha virt. eigenvalues --    0.14045   0.18084   0.19491   0.43700   0.45281

  Beta  occ. eigenvalues --  -10.67650 -10.67648  -0.72994  -0.72330  -0.39124
  Beta  occ. eigenvalues --   -0.38828  -0.24214
  Beta virt. eigenvalues --   -0.12153  -0.10424  -0.09389   0.03317   0.04652
  Beta virt. eigenvalues --    0.07242   0.07352   0.09342   0.09764   0.10973
  Beta virt. eigenvalues --    0.14045   0.18084   0.19491   0.43700   0.45281

 Mulliken charges and spin densities:
               1          2
     1  C   -0.144558  -0.000000
     2  C   -0.144556   0.000000
     3  H    0.144557   0.000000
     4  H    0.144557  -0.000000
 Sum of Mulliken charges =  -0.00000   0.00000

 Dipole moment (field-independent basis, Debye):
    X=             -0.0000    Y=              0.0006    Z=              0.0004  Tot=              0.0007
 Quadrupole moment (field-independent basis, Debye-Ang):
   XX=            -16.9177   YY=            -12.9347   ZZ=            -13.7341
   XY=              3.4928   XZ=             -4.7505   YZ=              1.2793

 Normal termination of Gaussian 16 at Tue Dec  3 23:40:18 2024.
