 Gaussian 16, Revision A.03,
 Gaussian 16:  ES64L-G16RevA.03 25-Dec-2016

 --------------------------------------------
 #p opt UM062X/6-311+G** nosymm int=superfine
 --------------------------------------------

 -------------------
 Title Card Required
 -------------------
 Symbolic Z-matrix:
 Charge = -1 Multiplicity = 2

 SCF Done:  E(UM062X) =  -50.5602731398     A.U. after   17 cycles
 SCF Done:  E(UM062X) =  -50.5640344757     A.U. after   16 cycles
 SCF Done:  E(UM062X) =  -50.5642570217     A.U. after   15 cycles
 Optimization completed.
    -- Stationary point found.

                          Input orientation:
 ---------------------------------------------------------------------
 Center     Atomic      Atomic             Coordinates (Angstroms)
 Number     Number       Type             X           Y           Z
 ---------------------------------------------------------------------
      1          5           0       -2.116404    0.000000    0.000000
      2          5           0        2.116404    0.000000    0.000000
      3          1           0       -3.377897   -0.000956   -0.000000
      4          1           0        3.377897    0.000956    0.000000
 ---------------------------------------------------------------------

 Alpha  occ. eigenvalues --   -6.91600  -6.91600  -0.35239  -0.35130  -0.09734
 Alpha  occ. eigenvalues --   -0.07586   0.02653
 Alpha virt. eigenvalues --    0.09674   0.12219   0.13200   0.15346   0.16027
 Alpha virt. eigenvalues --    0.21326   0.21600   0.21747   0.22454   0.23023
 Alpha virt. eigenvalues --    0.25334   0.32031   0.36800   0.49910   0.55947

  Beta  occ. eigenvalues --   -6.91509  -6.91508  -0.34163  -0.34121  -0.08635
  Beta  occ. eigenvalues --   -0.06549
  Beta virt. eigenvalues --    0.10595   0.11376   0.12034   0.12408   0.13390
  Beta virt. eigenvalues --    0.13607   0.19182   0.20056   0.20291   0.21158
  Beta virt. eigenvalues --    0.21471   0.21704   0.31866   0.36869   0.49550

 Mulliken charges and spin densities:
               1          2
     1  B   -0.410493   0.512673
     2  B   -0.410493   0.512673
     3  H   -0.089507  -0.012673
     4  H   -0.089507  -0.012673
 Sum of Mulliken charges =  -1.00000   1.00000

 Dipole moment (field-independent basis, Debye):
    X=             -0.0000    Y=              0.0000    Z=             -0.0000  Tot=              0.0000
 Quadrupole moment (field-independent basis, Debye-Ang):
   XX=            -40.3740   YY=            -19.0189   ZZ=            -26.2760
   XY=             -0.0010   XZ=             -0.0000   YZ=              0.0000

 Normal termination of Gaussian 16 at Mon Apr 21 17:34:22 2025.
