 Gaussian 16, Revision A.03,
 Gaussian 16:  ES64L-G16RevA.03 25-Dec-2016

 --------------------------------------------
 #p opt UM062X/6-311+G** nosymm int=superfine
 --------------------------------------------

 -------------------
 Title Card Required
 -------------------
 Symbolic Z-matrix:
 Charge =  0 Multiplicity = 3

 SCF Done:  E(UM062X) =  -50.5151113092     A.U. after   13 cycles
 SCF Done:  E(UM062X) =  -50.5161277166     A.U. after    9 cycles
 SCF Done:  E(UM062X) =  -50.5161360538     A.U. after    8 cycles
 Optimization completed.
    -- Stationary point found.

                          Input orientation:
 ---------------------------------------------------------------------
 Center     Atomic      Atomic             Coordinates (Angstroms)
 Number     Number       Type             X           Y           Z
 ---------------------------------------------------------------------
      1          5           0       -1.478410    0.000000    0.000000
      2          5           0        1.478410    0.000000    0.000000
      3          1           0       -2.685714   -0.000082   -0.000000
      4          1           0        2.685713    0.000082    0.000000
 ---------------------------------------------------------------------

 Alpha  occ. eigenvalues --   -7.13583  -7.13581  -0.56608  -0.55860  -0.35904
 Alpha  occ. eigenvalues --   -0.26072  -0.19104
 Alpha virt. eigenvalues --   -0.07702  -0.06878  -0.04053   0.02633   0.02715
 Alpha virt. eigenvalues --    0.06009   0.07203   0.07207   0.08109   0.08180
 Alpha virt. eigenvalues --    0.12207   0.19527   0.23129   0.36390   0.39183

  Beta  occ. eigenvalues --   -7.12640  -7.12637  -0.53117  -0.52680  -0.27484
  Beta virt. eigenvalues --   -0.05758  -0.05021  -0.04514  -0.01724  -0.01338
  Beta virt. eigenvalues --    0.01617   0.02777   0.06853   0.06929   0.07443
  Beta virt. eigenvalues --    0.08684   0.09887   0.10050   0.20887   0.24386

 Mulliken charges and spin densities:
               1          2
     1  B   -0.065783   0.911717
     2  B   -0.065783   0.911718
     3  H    0.065783   0.088283
     4  H    0.065783   0.088283
 Sum of Mulliken charges =  -0.00000   2.00000

 Dipole moment (field-independent basis, Debye):
    X=             -0.0000    Y=              0.0000    Z=              0.0000  Tot=              0.0000
 Quadrupole moment (field-independent basis, Debye-Ang):
   XX=            -10.7876   YY=            -13.4487   ZZ=            -17.5013
   XY=              0.0001   XZ=              0.0000   YZ=              0.0018

 1\1\GINC-NODE03\FOpt\UM062X\6-311+G(d,p)\B2H2(3)\SZHAO\21-Apr-2025\0\\
 #p opt UM062X/6-311+G** nosymm int=superfine\\Title Card Required\\0,3
 \B,-1.47841047,0.,0.\B,1.47841047,0.,0.\H,-2.6857135035,-0.0000823053,
 -0.0000000174\H,2.6857134282,0.0000823084,0.0000000565\\Version=ES64L-
 G16RevA.03\HF=-50.5161361\S2=2.010586\S2-1=0.\S2A=2.000011\RMSD=9.449e
 -09\RMSF=1.329e-06\Dipole=-0.0000001,0.,0.\Quadrupole=2.3233102,0.3448
 767,-2.668187,0.0000709,0.,0.0013531\PG=C*V [C*(H1B1B1H1)]\\@

 Normal termination of Gaussian 16 at Mon Apr 21 17:23:49 2025.
