 Gaussian 16, Revision A.03,
 Gaussian 16:  ES64L-G16RevA.03 25-Dec-2016

 --------------------------------------------
 #p opt UM062X/6-311+G** nosymm int=superfine
 --------------------------------------------

 -------------------
 Title Card Required
 -------------------
 Symbolic Z-matrix:
 Charge =  1 Multiplicity = 2

 SCF Done:  E(UM062X) =  -77.7388256509     A.U. after    9 cycles
 SCF Done:  E(UM062X) =  -77.7929219432     A.U. after   10 cycles
 SCF Done:  E(UM062X) =  -77.8388849139     A.U. after   10 cycles
 SCF Done:  E(UM062X) =  -77.8519533674     A.U. after    9 cycles
 SCF Done:  E(UM062X) =  -77.8557320125     A.U. after    9 cycles
 SCF Done:  E(UM062X) =  -77.8558534626     A.U. after    8 cycles
 SCF Done:  E(UM062X) =  -77.8558604147     A.U. after    7 cycles
 Optimization completed.
    -- Stationary point found.

                          Input orientation:
 ---------------------------------------------------------------------
 Center     Atomic      Atomic             Coordinates (Angstroms)
 Number     Number       Type             X           Y           Z
 ---------------------------------------------------------------------
      1          6           0       -0.480687    0.000000    0.000000
      2          6           0        0.480687    0.000000    0.000000
      3          1           0       -1.267147   -0.816586    0.000000
      4          1           0       -1.260602    0.824867    0.000000
      5          1           0        1.267147    0.816586   -0.000000
      6          1           0        1.260602   -0.824867   -0.000000
 ---------------------------------------------------------------------

 Alpha  occ. eigenvalues --  -10.81185 -10.79334  -1.24893  -0.96719  -0.87905
 Alpha  occ. eigenvalues --   -0.87670  -0.72796  -0.64559
 Alpha virt. eigenvalues --   -0.17476  -0.15468  -0.15235  -0.13770  -0.10788
 Alpha virt. eigenvalues --   -0.08898  -0.07494  -0.06612  -0.02481  -0.01948
 Alpha virt. eigenvalues --   -0.00039   0.02767   0.14138   0.18169   0.18884

  Beta  occ. eigenvalues --  -10.81215 -10.79343  -1.23978  -0.91941  -0.84874
  Beta  occ. eigenvalues --   -0.82934  -0.72547
  Beta virt. eigenvalues --   -0.43795  -0.16137  -0.15300  -0.15096  -0.13485
  Beta virt. eigenvalues --   -0.10573  -0.08780  -0.05007  -0.04434  -0.02231
  Beta virt. eigenvalues --   -0.01038   0.00444   0.03573   0.14040   0.17913

 Mulliken charges and spin densities:
               1          2
     1  C   -0.150088   0.102651
     2  C   -0.150088   0.102651
     3  H    0.324940   0.197034
     4  H    0.325148   0.200315
     5  H    0.324940   0.197034
     6  H    0.325148   0.200315
 Sum of Mulliken charges =   1.00000   1.00000

 Dipole moment (field-independent basis, Debye):
    X=             -0.0000    Y=              0.0000    Z=              0.0000  Tot=              0.0000
 Quadrupole moment (field-independent basis, Debye-Ang):
   XX=             -2.5538   YY=             -7.4735   ZZ=            -12.2742
   XY=             -0.0204   XZ=             -0.0000   YZ=              0.0000

 Normal termination of Gaussian 16 at Tue Nov 19 10:43:22 2024.
