 Gaussian 16, Revision A.03,
 Gaussian 16:  ES64L-G16RevA.03 25-Dec-2016

 ---------------------------------------
 #p UM062X/6-311+G** force int=superfine
 ---------------------------------------

 -------------------
 Title Card Required
 -------------------
 Symbolic Z-matrix:
 Charge =  1 Multiplicity = 2

                         Standard orientation:
 ---------------------------------------------------------------------
 Center     Atomic      Atomic             Coordinates (Angstroms)
 Number     Number       Type             X           Y           Z
 ---------------------------------------------------------------------
      1          6           0        0.000000    0.000000    0.671050
      2          6           0        0.000000    0.000000   -0.671050
      3          1           0        0.000000    0.000000    1.755171
      4          1           0        0.000000    0.000000   -1.755171
 ---------------------------------------------------------------------

 SCF Done:  E(UM062X) =  -76.8868224645     A.U. after    9 cycles

 Unable to determine electronic state:  an orbital has unidentified symmetry.
 Alpha  occ. eigenvalues --  -10.95831 -10.95709  -1.19361  -0.97719  -0.88718
 Alpha  occ. eigenvalues --   -0.70317  -0.67798
 Alpha virt. eigenvalues --   -0.29858  -0.27838  -0.16905  -0.14435  -0.11359
 Alpha virt. eigenvalues --   -0.10008  -0.09753  -0.07925  -0.04980  -0.04582
 Alpha virt. eigenvalues --    0.02196   0.04482   0.13634   0.19541   0.30179

  Beta  occ. eigenvalues --  -10.95592 -10.95490  -1.14774  -0.96100  -0.88177
  Beta  occ. eigenvalues --   -0.65400
  Beta virt. eigenvalues --   -0.44765  -0.26179  -0.22973  -0.15635  -0.15577
  Beta virt. eigenvalues --   -0.11545  -0.10288  -0.10022  -0.07600  -0.04540
  Beta virt. eigenvalues --   -0.04015   0.01809   0.04680   0.14220   0.20435

 Mulliken charges and spin densities:
               1          2
     1  C    0.176054   0.519625
     2  C    0.176054   0.519625
     3  H    0.323946  -0.019625
     4  H    0.323946  -0.019625
 Sum of Mulliken charges =   1.00000   1.00000

 Dipole moment (field-independent basis, Debye):
    X=              0.0000    Y=              0.0000    Z=             -0.0000  Tot=              0.0000
 Quadrupole moment (field-independent basis, Debye-Ang):
   XX=            -11.7645   YY=             -9.8823   ZZ=              0.2080
   XY=              0.0000   XZ=             -0.0000   YZ=             -0.0000

 Normal termination of Gaussian 16 at Tue Nov 19 13:32:10 2024.
