 Gaussian 16, Revision A.03,
 Gaussian 16:  ES64L-G16RevA.03 25-Dec-2016

 --------------------------------------------
 #p opt UM062X/6-311+G** nosymm int=superfine
 --------------------------------------------

 -------------------
 Title Card Required
 -------------------
 Symbolic Z-matrix:
 Charge =  0 Multiplicity = 1

 SCF Done:  E(UM062X) =  -80.3937602662     A.U. after   29 cycles
 SCF Done:  E(UM062X) =  -80.4149551189     A.U. after   14 cycles
 SCF Done:  E(UM062X) =  -80.4474249269     A.U. after   15 cycles
 SCF Done:  E(UM062X) =  -80.4553208439     A.U. after   17 cycles
 SCF Done:  E(UM062X) =  -80.4596419079     A.U. after   14 cycles
 SCF Done:  E(UM062X) =  -80.4598101240     A.U. after   12 cycles
 SCF Done:  E(UM062X) =  -80.4604195810     A.U. after   18 cycles
 SCF Done:  E(UM062X) =  -80.4735450654     A.U. after   23 cycles
 SCF Done:  E(UM062X) =  -80.4764868660     A.U. after   17 cycles
 SCF Done:  E(UM062X) =  -80.4763978382     A.U. after   18 cycles
 SCF Done:  E(UM062X) =  -80.4768660195     A.U. after   18 cycles
 SCF Done:  E(UM062X) =  -80.4768670331     A.U. after   13 cycles
 SCF Done:  E(UM062X) =  -80.4768670778     A.U. after   14 cycles
 Optimization completed.
    -- Stationary point found.

                          Input orientation:
 ---------------------------------------------------------------------
 Center     Atomic      Atomic             Coordinates (Angstroms)
 Number     Number       Type             X           Y           Z
 ---------------------------------------------------------------------
      1          5           0       -1.192066    0.000000    0.000000
      2          7           0        1.192066    0.000000    0.000000
      3          1           0       -2.359613    0.281960   -0.054967
      4          1           0        1.195993   -1.017495    0.198421
 ---------------------------------------------------------------------

 Alpha  occ. eigenvalues --  -14.76964  -7.20562  -0.83974  -0.60755  -0.40808
 Alpha  occ. eigenvalues --   -0.34128  -0.27257
 Alpha virt. eigenvalues --   -0.08834  -0.07927  -0.04463   0.00638   0.04011
 Alpha virt. eigenvalues --    0.04814   0.05185   0.12827   0.16291   0.18307
 Alpha virt. eigenvalues --    0.19625   0.21398   0.26111   0.35400   0.38444

  Beta  occ. eigenvalues --  -14.76964  -7.20562  -0.83974  -0.60755  -0.40808
  Beta  occ. eigenvalues --   -0.34128  -0.27257
  Beta virt. eigenvalues --   -0.08834  -0.07927  -0.04463   0.00638   0.04011
  Beta virt. eigenvalues --    0.04814   0.05185   0.12827   0.16291   0.18307
  Beta virt. eigenvalues --    0.19625   0.21398   0.26111   0.35400   0.38444

 Mulliken charges and spin densities:
               1          2
     1  B    0.125728   0.000000
     2  N   -0.356645  -0.000000
     3  H    0.059826   0.000000
     4  H    0.171091   0.000000
 Sum of Mulliken charges =  -0.00000  -0.00000

 Dipole moment (field-independent basis, Debye):
    X=             -4.4128    Y=             -1.0646    Z=              0.2076  Tot=              4.5442
 Quadrupole moment (field-independent basis, Debye-Ang):
   XX=            -10.3167   YY=            -12.4938   ZZ=            -15.2839
   XY=             -2.0762   XZ=              0.4049   YZ=             -0.5656

 Normal termination of Gaussian 16 at Mon Apr 21 21:07:32 2025.
