 Gaussian 16, Revision A.03,
 Gaussian 16:  ES64L-G16RevA.03 25-Dec-2016

 --------------------------------------------
 #p opt UM062X/6-311+G** nosymm int=superfine
 --------------------------------------------

 -------------------
 Title Card Required
 -------------------
 Symbolic Z-matrix:
 Charge =  0 Multiplicity = 1

 SCF Done:  E(UM062X) =  -382.420969004     A.U. after   11 cycles
 SCF Done:  E(UM062X) =  -382.421199625     A.U. after    9 cycles
 SCF Done:  E(UM062X) =  -382.421216840     A.U. after    8 cycles
 SCF Done:  E(UM062X) =  -382.421217106     A.U. after    7 cycles
 Optimization completed.
    -- Stationary point found.

                          Input orientation:
 ---------------------------------------------------------------------
 Center     Atomic      Atomic             Coordinates (Angstroms)
 Number     Number       Type             X           Y           Z
 ---------------------------------------------------------------------
      1          6           0       -0.981264    0.000000    0.000000
      2         15           0        0.981264    0.000000    0.000000
      3          1           0        1.128431   -1.408961    0.006454
      4          1           0       -1.316244    1.015126    0.207352
      5          1           0        1.128399    0.103126    1.405197
      6          1           0       -1.316279   -0.285787   -0.995880
      7          1           0       -1.384524   -0.685730    0.741414
 ---------------------------------------------------------------------

 Alpha  occ. eigenvalues --  -78.01578 -10.54284  -6.84140  -4.95708  -4.95704
 Alpha  occ. eigenvalues --   -4.95445  -0.80824  -0.67758  -0.48974  -0.48348
 Alpha  occ. eigenvalues --   -0.42072  -0.39580  -0.30797
 Alpha virt. eigenvalues --    0.00561   0.02407   0.03894   0.04464   0.06426
 Alpha virt. eigenvalues --    0.06607   0.08151   0.08435   0.09650   0.13636
 Alpha virt. eigenvalues --    0.17991   0.18236   0.19330   0.28309   0.30158

  Beta  occ. eigenvalues --  -78.01578 -10.54284  -6.84140  -4.95708  -4.95704
  Beta  occ. eigenvalues --   -4.95445  -0.80824  -0.67758  -0.48974  -0.48348
  Beta  occ. eigenvalues --   -0.42072  -0.39580  -0.30797
  Beta virt. eigenvalues --    0.00561   0.02407   0.03894   0.04464   0.06426
  Beta virt. eigenvalues --    0.06607   0.08151   0.08435   0.09650   0.13636
  Beta virt. eigenvalues --    0.17991   0.18236   0.19330   0.28309   0.30158

 Mulliken charges and spin densities:
               1          2
     1  C   -0.577178  -0.000000
     2  P    0.025819   0.000000
     3  H    0.004055  -0.000000
     4  H    0.180696   0.000000
     5  H    0.004052  -0.000000
     6  H    0.180695   0.000000
     7  H    0.181861   0.000000
 Sum of Mulliken charges =  -0.00000  -0.00000

 Dipole moment (field-independent basis, Debye):
    X=             -0.8435    Y=             -0.5005    Z=              0.5411  Tot=              1.1201
 Quadrupole moment (field-independent basis, Debye-Ang):
   XX=            -23.3091   YY=            -21.9827   ZZ=            -22.1059
   XY=             -1.1385   XZ=              1.2307   YZ=              0.7903

 Normal termination of Gaussian 16 at Mon Apr 21 18:58:14 2025.
