 Gaussian 16, Revision A.03,
 Gaussian 16:  ES64L-G16RevA.03 25-Dec-2016

 --------------------------------------------
 #p opt UM062X/6-311+G** nosymm int=superfine
 --------------------------------------------

 -------------------
 Title Card Required
 -------------------
 Symbolic Z-matrix:
 Charge =  1 Multiplicity = 2

 SCF Done:  E(UM062X) =  -1615.41982059     A.U. after   30 cycles
 SCF Done:  E(UM062X) =  -1615.49302220     A.U. after   27 cycles
 SCF Done:  E(UM062X) =  -1615.54901450     A.U. after   23 cycles
 SCF Done:  E(UM062X) =  -1615.55082414     A.U. after   23 cycles
 SCF Done:  E(UM062X) =  -1615.55174693     A.U. after   28 cycles
 SCF Done:  E(UM062X) =  -1615.55195904     A.U. after   25 cycles
 SCF Done:  E(UM062X) =  -1615.55199290     A.U. after   26 cycles
 SCF Done:  E(UM062X) =  -1615.55223700     A.U. after   27 cycles
 SCF Done:  E(UM062X) =  -1615.55267827     A.U. after   24 cycles
 SCF Done:  E(UM062X) =  -1615.55292187     A.U. after   24 cycles
 SCF Done:  E(UM062X) =  -1615.55334019     A.U. after   17 cycles
 SCF Done:  E(UM062X) =  -1615.55335867     A.U. after   22 cycles
 SCF Done:  E(UM062X) =  -1615.55335805     A.U. after   19 cycles
 SCF Done:  E(UM062X) =  -1615.55336140     A.U. after   21 cycles
 SCF Done:  E(UM062X) =  -1615.55336198     A.U. after   18 cycles
 SCF Done:  E(UM062X) =  -1615.55336224     A.U. after   18 cycles
 SCF Done:  E(UM062X) =  -1615.55336225     A.U. after   19 cycles
 SCF Done:  E(UM062X) =  -1615.55336229     A.U. after   18 cycles
 SCF Done:  E(UM062X) =  -1615.55336247     A.U. after   17 cycles
 SCF Done:  E(UM062X) =  -1615.55336249     A.U. after   15 cycles
 Optimization completed.
    -- Stationary point found.

                          Input orientation:
 ---------------------------------------------------------------------
 Center     Atomic      Atomic             Coordinates (Angstroms)
 Number     Number       Type             X           Y           Z
 ---------------------------------------------------------------------
      1          6           0       -1.826059    0.000000    0.000000
      2          6           0        1.826059    0.000000    0.000000
      3          6           0        0.000034   -1.998803   -0.002193
      4          6           0        0.000003   -3.408029   -0.003757
      5          6           0       -1.122370   -4.253160    0.224581
      6          6           0       -1.347186   -1.432104    0.177992
      7          6           0        0.659785   -5.645302   -0.145047
      8          1           0        1.292136   -6.510717   -0.282582
      9          6           0       -1.836270    0.784912    1.204807
     10          6           0       -0.659865   -5.645590    0.132536
     11          1           0       -1.292247   -6.511286    0.268144
     12          6           0        1.122346   -4.252686   -0.233961
     13          6           0        1.347264   -1.431725   -0.181119
     14          6           0        2.256375    2.153938   -1.334437
     15          6           0       -2.052458    0.366742   -1.372126
     16          6           0       -2.226832    2.759183    2.606678
     17          1           0       -2.565165    3.785509    2.686240
     18          6           0       -2.335943   -3.686496    0.480216
     19          1           0       -3.224924   -4.272985    0.680135
     20          6           0       -2.393482    1.672006   -1.861024
     21          6           0        2.412481   -2.274351   -0.440247
     22          1           0        3.387361   -1.816061   -0.573012
     23          6           0        2.052357    0.363753    1.372968
     24          6           0        2.393014    1.668009    1.864788
     25          6           0        2.335943   -3.685488   -0.488305
     26          1           0        3.224908   -4.271560   -0.689515
     27          6           0       -2.256873    2.150864    1.339189
     28          6           0       -1.373417    0.149655    2.397204
     29          1           0       -1.044030   -0.877084    2.352340
     30          6           0        1.887911   -0.657938    2.360638
     31          1           0        1.681896   -1.670325    2.047745
     32          6           0       -1.776214    2.104373    3.734144
     33          1           0       -1.767252    2.608976    4.692382
     34          6           0       -2.412437   -2.275250    0.435289
     35          1           0       -3.387304   -1.817236    0.569097
     36          6           0       -2.470766    1.887920   -3.249642
     37          1           0       -2.718039    2.884584   -3.595612
     38          6           0        1.836225    0.787552   -1.203110
     39          6           0       -2.695872    3.011681    0.273177
     40          1           0       -3.014748    3.994059    0.606826
     41          6           0       -2.268055    0.882455   -4.170238
     42          1           0       -2.347743    1.088123   -5.230779
     43          6           0       -2.723853    2.821633   -1.060305
     44          1           0       -3.055258    3.676405   -1.641310
     45          6           0        2.470355    1.880818    3.253859
     46          1           0        2.717353    2.876776    3.602056
     47          6           0       -1.336089    0.783633    3.617600
     48          1           0       -0.971873    0.247920    4.485682
     49          6           0       -1.887689   -0.652705   -2.362080
     50          1           0       -1.681443   -1.665733   -2.051423
     51          6           0        2.268043    0.873219    4.172239
     52          1           0        2.347799    1.076532    5.233228
     53          6           0        2.226332    2.765028   -2.600567
     54          1           0        2.564321    3.791645   -2.677811
     55          6           0        1.996377   -0.418101    3.709830
     56          1           0        1.871031   -1.236205    4.408931
     57          6           0        1.776134    2.112553   -3.729580
     58          1           0        1.767188    2.619261   -4.686704
     59          6           0        2.694888    3.012592   -0.266428
     60          1           0        3.013368    3.995844   -0.597875
     61          6           0       -1.996088   -0.409855   -3.710716
     62          1           0       -1.870443   -1.226331   -4.411662
     63          6           0        2.722903    2.819585    1.066603
     64          1           0        3.053944    3.673189    1.649532
     65          6           0        1.373799    0.154780   -2.396971
     66          1           0        1.044797   -0.872181   -2.354441
     67          6           0        1.336456    0.791429   -3.616000
     68          1           0        0.972581    0.257476   -4.485309
 ---------------------------------------------------------------------

 Alpha  occ. eigenvalues --  -10.70649 -10.70640 -10.68585 -10.68580 -10.68440
 Alpha  occ. eigenvalues --  -10.68434 -10.68161 -10.68155 -10.68096 -10.67991
 Alpha  occ. eigenvalues --  -10.67985 -10.67658 -10.67654 -10.66426 -10.66420
 Alpha  occ. eigenvalues --  -10.66321 -10.66315 -10.65873 -10.65868 -10.65760
 Alpha  occ. eigenvalues --  -10.65755 -10.65688 -10.65683 -10.65526 -10.65522
 Alpha  occ. eigenvalues --  -10.65490 -10.65486 -10.65332 -10.65328 -10.65320
 Alpha  occ. eigenvalues --  -10.65316 -10.65208 -10.65204 -10.65185 -10.65184
 Alpha  occ. eigenvalues --  -10.65067 -10.65065 -10.64753 -10.64751 -10.63998
 Alpha  occ. eigenvalues --  -10.63627 -10.63525  -1.11454  -1.10382  -1.09765
 Alpha  occ. eigenvalues --   -1.08007  -1.07798  -1.04970  -1.04883  -1.02231
 Alpha  occ. eigenvalues --   -1.02074  -1.00972  -0.99965  -0.97767  -0.97544
 Alpha  occ. eigenvalues --   -0.96455  -0.96245  -0.94733  -0.93476  -0.93346
 Alpha  occ. eigenvalues --   -0.92767  -0.91560  -0.87143  -0.86920  -0.84793
 Alpha  occ. eigenvalues --   -0.84661  -0.82958  -0.81381  -0.80593  -0.79660
 Alpha  occ. eigenvalues --   -0.79500  -0.79395  -0.77047  -0.76135  -0.75986
 Alpha  occ. eigenvalues --   -0.75782  -0.75157  -0.73102  -0.69858  -0.69444
 Alpha  occ. eigenvalues --   -0.68509  -0.68499  -0.67696  -0.67506  -0.66712
 Alpha  occ. eigenvalues --   -0.66704  -0.65677  -0.65242  -0.65090  -0.64460
 Alpha  occ. eigenvalues --   -0.63176  -0.62714  -0.62350  -0.61903  -0.60750
 Alpha  occ. eigenvalues --   -0.60650  -0.60377  -0.60028  -0.59841  -0.59533
 Alpha  occ. eigenvalues --   -0.59365  -0.58552  -0.58298  -0.57978  -0.57571
 Alpha  occ. eigenvalues --   -0.57364  -0.56408  -0.55966  -0.55536  -0.55518
 Alpha  occ. eigenvalues --   -0.54849  -0.54616  -0.52876  -0.52704  -0.52535
 Alpha  occ. eigenvalues --   -0.52285  -0.52222  -0.51830  -0.50861  -0.50850
 Alpha  occ. eigenvalues --   -0.50674  -0.49857  -0.49655  -0.49473  -0.48858
 Alpha  occ. eigenvalues --   -0.48499  -0.48033  -0.48023  -0.46200  -0.44245
 Alpha  occ. eigenvalues --   -0.43057  -0.43035  -0.41018  -0.40307  -0.38841
 Alpha  occ. eigenvalues --   -0.38008  -0.37795  -0.36941  -0.29108
 Alpha virt. eigenvalues --   -0.22045  -0.15313  -0.15295  -0.14699  -0.10402
 Alpha virt. eigenvalues --   -0.09287  -0.08719  -0.08507  -0.08311  -0.07682
 Alpha virt. eigenvalues --   -0.07364  -0.07297  -0.06565  -0.06246  -0.06239

  Beta  occ. eigenvalues --  -10.70487 -10.70479 -10.68630 -10.68625 -10.68485
  Beta  occ. eigenvalues --  -10.68480 -10.68119 -10.68113 -10.68069 -10.67947
  Beta  occ. eigenvalues --  -10.67940 -10.67677 -10.67672 -10.66418 -10.66412
  Beta  occ. eigenvalues --  -10.66314 -10.66308 -10.65838 -10.65832 -10.65728
  Beta  occ. eigenvalues --  -10.65724 -10.65646 -10.65641 -10.65507 -10.65503
  Beta  occ. eigenvalues --  -10.65486 -10.65482 -10.65348 -10.65344 -10.65341
  Beta  occ. eigenvalues --  -10.65336 -10.65226 -10.65222 -10.65180 -10.65179
  Beta  occ. eigenvalues --  -10.65055 -10.65053 -10.64752 -10.64751 -10.63996
  Beta  occ. eigenvalues --  -10.63627 -10.63525  -1.11321  -1.10207  -1.09687
  Beta  occ. eigenvalues --   -1.07903  -1.07701  -1.04819  -1.04718  -1.02115
  Beta  occ. eigenvalues --   -1.01966  -1.00794  -0.99804  -0.97663  -0.97442
  Beta  occ. eigenvalues --   -0.96349  -0.96154  -0.94693  -0.93407  -0.93245
  Beta  occ. eigenvalues --   -0.92687  -0.91478  -0.86835  -0.86570  -0.84727
  Beta  occ. eigenvalues --   -0.84597  -0.82883  -0.81290  -0.80498  -0.79583
  Beta  occ. eigenvalues --   -0.79424  -0.79318  -0.76942  -0.76010  -0.75815
  Beta  occ. eigenvalues --   -0.75616  -0.75104  -0.72994  -0.69737  -0.69295
  Beta  occ. eigenvalues --   -0.68417  -0.68389  -0.67648  -0.67459  -0.66592
  Beta  occ. eigenvalues --   -0.66587  -0.65568  -0.65093  -0.64944  -0.64367
  Beta  occ. eigenvalues --   -0.63011  -0.62657  -0.62253  -0.61832  -0.60622
  Beta  occ. eigenvalues --   -0.60503  -0.60261  -0.59947  -0.59782  -0.59355
  Beta  occ. eigenvalues --   -0.59139  -0.58480  -0.58087  -0.57907  -0.57367
  Beta  occ. eigenvalues --   -0.57268  -0.55992  -0.55771  -0.55471  -0.55466
  Beta  occ. eigenvalues --   -0.54807  -0.54297  -0.52776  -0.52605  -0.52484
  Beta  occ. eigenvalues --   -0.52172  -0.52109  -0.51812  -0.50802  -0.50743
  Beta  occ. eigenvalues --   -0.50585  -0.49597  -0.49470  -0.49295  -0.48436
  Beta  occ. eigenvalues --   -0.48147  -0.47984  -0.47116  -0.45446  -0.43854
  Beta  occ. eigenvalues --   -0.42622  -0.42358  -0.40752  -0.40229  -0.38318
  Beta  occ. eigenvalues --   -0.37849  -0.37342  -0.36934
  Beta virt. eigenvalues --   -0.19857  -0.18540  -0.15336  -0.15310  -0.14773
  Beta virt. eigenvalues --   -0.10150  -0.08907  -0.08335  -0.08313  -0.08094
  Beta virt. eigenvalues --   -0.07435  -0.07369  -0.07282  -0.06541  -0.06304

 Mulliken charges and spin densities:
               1          2
     1  C    0.139687   0.302188
     2  C    0.139747   0.302842
     3  C    0.236777   0.021302
     4  C    0.085870  -0.012079
     5  C    0.038634   0.006962
     6  C    0.214101  -0.027132
     7  C   -0.285795   0.000829
     8  H    0.175740   0.000003
     9  C   -0.058582  -0.101438
    10  C   -0.285748   0.000826
    11  H    0.175738   0.000003
    12  C    0.038579   0.006957
    13  C    0.213714  -0.027184
    14  C    0.385490   0.090038
    15  C    0.299657  -0.045446
    16  C   -0.242997  -0.033258
    17  H    0.171380   0.000983
    18  C   -0.415044   0.004265
    19  H    0.174205   0.000033
    20  C    0.389107   0.073939
    21  C   -0.329022   0.019763
    22  H    0.169708   0.000022
    23  C    0.299548  -0.045588
    24  C    0.388999   0.074115
    25  C   -0.415088   0.004277
    26  H    0.174204   0.000033
    27  C    0.385454   0.089911
    28  C    0.093991   0.111566
    29  H    0.198121  -0.005878
    30  C   -0.287782   0.032261
    31  H    0.230283  -0.004337
    32  C   -0.401447   0.070271
    33  H    0.178509  -0.003632
    34  C   -0.329105   0.019732
    35  H    0.169687   0.000022
    36  C   -0.134664  -0.047908
    37  H    0.167253   0.000944
    38  C   -0.058268  -0.101535
    39  C   -0.431549   0.018326
    40  H    0.175763  -0.001254
    41  C   -0.196595   0.074598
    42  H    0.181273  -0.003425
    43  C   -0.325396   0.029299
    44  H    0.176505  -0.001210
    45  C   -0.134754  -0.047995
    46  H    0.167235   0.000946
    47  C    0.043167  -0.036396
    48  H    0.161996   0.001487
    49  C   -0.287608   0.032099
    50  H    0.230316  -0.004334
    51  C   -0.196849   0.074758
    52  H    0.181258  -0.003434
    53  C   -0.243109  -0.033343
    54  H    0.171365   0.000986
    55  C   -0.492084  -0.032375
    56  H    0.175787   0.001021
    57  C   -0.401280   0.070424
    58  H    0.178487  -0.003640
    59  C   -0.431647   0.018358
    60  H    0.175738  -0.001257
    61  C   -0.492248  -0.032265
    62  H    0.175803   0.001018
    63  C   -0.325347   0.029325
    64  H    0.176475  -0.001212
    65  C    0.093520   0.111691
    66  H    0.198110  -0.005886
    67  C    0.043063  -0.036467
    68  H    0.161968   0.001487
 Sum of Mulliken charges =   1.00000   1.00000

 Dipole moment (field-independent basis, Debye):
    X=             -0.0067    Y=              2.9057    Z=              0.0026  Tot=              2.9057
 Quadrupole moment (field-independent basis, Debye-Ang):
   XX=           -211.8091   YY=           -176.3763   ZZ=           -177.8841
   XY=             -0.0238   XZ=              6.0461   YZ=              0.0053

 Normal termination of Gaussian 16 at Sat Nov 16 09:15:24 2024.
