 Gaussian 16, Revision A.03,
 Gaussian 16:  ES64L-G16RevA.03 25-Dec-2016

 --------------------------------------------
 #p opt UM062X/6-311+G** nosymm int=superfine
 --------------------------------------------

 -------------------
 Title Card Required
 -------------------
 Symbolic Z-matrix:
 Charge =  0 Multiplicity = 2

 SCF Done:  E(UM062X) =  -75.7264687242     A.U. after   82 cycles
 SCF Done:  E(UM062X) =  -75.7265270867     A.U. after    8 cycles
 Optimization completed.
    -- Stationary point found.

                          Input orientation:
 ---------------------------------------------------------------------
 Center     Atomic      Atomic             Coordinates (Angstroms)
 Number     Number       Type             X           Y           Z
 ---------------------------------------------------------------------
      1          8           0        0.711185   -0.001825   -0.003276
      2          1           0        0.902475    0.461922    0.829030
 ---------------------------------------------------------------------

 Alpha  occ. eigenvalues --  -19.69503  -1.14856  -0.56785  -0.50633  -0.44206
 Alpha virt. eigenvalues --    0.06788   0.16661   0.17067   0.17221   0.20932
 Alpha virt. eigenvalues --    0.50055   1.00021   1.00521   1.04205   1.26663
 Alpha virt. eigenvalues --    1.35632   1.36996   2.01682   2.44802   2.81794

  Beta  occ. eigenvalues --  -19.67889  -1.06521  -0.53499  -0.40515
  Beta virt. eigenvalues --   -0.10729   0.06838   0.16791   0.17673   0.17815
  Beta virt. eigenvalues --    0.20102   0.51100   1.01244   1.05288   1.05477
  Beta virt. eigenvalues --    1.29193   1.37051   1.37484   2.03314   2.44824

 Mulliken charges and spin densities:
               1          2
     1  O   -0.251745   1.025517
     2  H    0.251745  -0.025517
 Sum of Mulliken charges =  -0.00000   1.00000

 Dipole moment (field-independent basis, Debye):
    X=              0.3653    Y=              0.8855    Z=              1.5893  Tot=              1.8556
 Quadrupole moment (field-independent basis, Debye-Ang):
   XX=             -5.2858   YY=             -6.1093   ZZ=             -4.8004
   XY=              1.2782   XZ=              1.1076   YZ=              0.8373

 1\1\GINC-NODE02\FOpt\UM062X\6-311+G(d,p)\H1O1(2)\SZHAO\16-Apr-2025\0\\
 #p opt UM062X/6-311+G** nosymm int=superfine\\Title Card Required\\0,2
 \O,0.7111848971,-0.0018252761,-0.0032758916\H,0.9024748429,0.461922426
 1,0.8290295116\\Version=ES64L-G16RevA.03\HF=-75.7265271\S2=0.752706\S2
 -1=0.\S2A=0.750005\RMSD=7.108e-09\RMSF=1.427e-04\Dipole=0.1437074,0.34
 83903,0.6252707\Quadrupole=0.0838074,-0.5284814,0.444674,0.9503262,0.8
 23462,0.622527\PG=C*V [C*(H1O1)]\\@

 Normal termination of Gaussian 16 at Wed Apr 16 08:44:01 2025.
