 Gaussian 16, Revision A.03,
 Gaussian 16:  ES64L-G16RevA.03 25-Dec-2016

 --------------------------------------------
 #p opt UM062X/6-311+G** nosymm int=superfine
 --------------------------------------------

 -------------------
 Title Card Required
 -------------------
 Symbolic Z-matrix:
 Charge =  0 Multiplicity = 1

 SCF Done:  E(UM062X) =  -115.551612602     A.U. after   12 cycles
 SCF Done:  E(UM062X) =  -115.565877707     A.U. after   11 cycles
 SCF Done:  E(UM062X) =  -115.570866683     A.U. after   11 cycles
 SCF Done:  E(UM062X) =  -115.570907446     A.U. after    9 cycles
 SCF Done:  E(UM062X) =  -115.570923723     A.U. after    9 cycles
 SCF Done:  E(UM062X) =  -115.570924912     A.U. after    8 cycles
 SCF Done:  E(UM062X) =  -115.570925331     A.U. after    8 cycles
 Optimization completed.
    -- Stationary point found.

                          Input orientation:
 ---------------------------------------------------------------------
 Center     Atomic      Atomic             Coordinates (Angstroms)
 Number     Number       Type             X           Y           Z
 ---------------------------------------------------------------------
      1          6           0       -1.182203    0.000000    0.000000
      2          8           0        1.182203    0.000000    0.000000
      3          1           0        1.257793   -0.962259    0.000203
      4          1           0       -1.331033   -0.524810    0.933096
      5          1           0       -1.237221    1.078777   -0.000791
      6          1           0       -1.331104   -0.526181   -0.932313
 ---------------------------------------------------------------------

 Alpha  occ. eigenvalues --  -19.60598 -10.64357  -1.03068  -0.82032  -0.54031
 Alpha  occ. eigenvalues --   -0.53854  -0.47207  -0.34192  -0.34172
 Alpha virt. eigenvalues --   -0.08824   0.00990   0.04476   0.04975   0.06653
 Alpha virt. eigenvalues --    0.14666   0.16623   0.16834   0.20250   0.22897
 Alpha virt. eigenvalues --    0.23189   0.24340   0.32877   0.40552   0.41347

  Beta  occ. eigenvalues --  -19.60598 -10.64357  -1.03068  -0.82032  -0.54031
  Beta  occ. eigenvalues --   -0.53854  -0.47207  -0.34192  -0.34172
  Beta virt. eigenvalues --   -0.08824   0.00990   0.04476   0.04975   0.06653
  Beta virt. eigenvalues --    0.14666   0.16623   0.16834   0.20250   0.22897
  Beta virt. eigenvalues --    0.23189   0.24340   0.32877   0.40552   0.41347

 Mulliken charges and spin densities:
               1          2
     1  C   -0.299596   0.000000
     2  O   -0.528183  -0.000000
     3  H    0.220934   0.000000
     4  H    0.196527  -0.000000
     5  H    0.213809  -0.000000
     6  H    0.196508  -0.000000
 Sum of Mulliken charges =  -0.00000  -0.00000

 Dipole moment (field-independent basis, Debye):
    X=             -3.8964    Y=             -1.5377    Z=              0.0003  Tot=              4.1889
 Quadrupole moment (field-independent basis, Debye-Ang):
   XX=            -13.3592   YY=            -11.4057   ZZ=            -13.8175
   XY=             -2.2225   XZ=              0.0005   YZ=             -0.0005

 Normal termination of Gaussian 16 at Mon Apr 21 18:41:47 2025.
