 Gaussian 16, Revision A.03,
 Gaussian 16:  ES64L-G16RevA.03 25-Dec-2016

 --------------------------------------------
 #p opt UM062X/6-311+G** nosymm int=superfine
 --------------------------------------------

 -------------------
 Title Card Required
 -------------------
 Symbolic Z-matrix:
 Charge =  1 Multiplicity = 2

 SCF Done:  E(UM062X) =  -79.3275697150     A.U. after   10 cycles
 SCF Done:  E(UM062X) =  -79.3280005400     A.U. after    9 cycles
 SCF Done:  E(UM062X) =  -79.3280012297     A.U. after    8 cycles
 Optimization completed.
    -- Stationary point found.

                          Input orientation:
 ---------------------------------------------------------------------
 Center     Atomic      Atomic             Coordinates (Angstroms)
 Number     Number       Type             X           Y           Z
 ---------------------------------------------------------------------
      1          6           0       -1.712006    0.000000    0.000000
      2          6           0        1.712006    0.000000    0.000000
      3          1           0        1.750324   -0.937614    0.542660
      4          1           0       -1.748936   -0.938717   -0.540842
      5          1           0        1.749746    0.938808    0.540631
      6          1           0        1.748878   -0.001161   -1.083376
      7          1           0       -1.750368    0.937710   -0.542491
      8          1           0       -1.749646    0.000937    1.083351
 ---------------------------------------------------------------------

 Alpha  occ. eigenvalues --  -10.84473 -10.84471  -1.03116  -1.02332  -0.73999
 Alpha  occ. eigenvalues --   -0.73999  -0.73660  -0.73660  -0.50187
 Alpha virt. eigenvalues --   -0.36698  -0.13426  -0.10214  -0.09983  -0.09983
 Alpha virt. eigenvalues --   -0.06246  -0.06246  -0.04711  -0.03245  -0.01182
 Alpha virt. eigenvalues --   -0.01180   0.01272   0.01273   0.03918   0.08008

  Beta  occ. eigenvalues --  -10.84267 -10.84267  -1.00397  -0.99876  -0.73492
  Beta  occ. eigenvalues --   -0.73491  -0.73143  -0.73143
  Beta virt. eigenvalues --   -0.32685  -0.26281  -0.15638  -0.11138  -0.11138
  Beta virt. eigenvalues --   -0.10107  -0.06330  -0.06330  -0.05078  -0.02328
  Beta virt. eigenvalues --   -0.01531  -0.01529   0.01560   0.01562   0.04442

 Mulliken charges and spin densities:
               1          2
     1  C   -0.265766   0.561620
     2  C   -0.265766   0.561621
     3  H    0.255271  -0.020543
     4  H    0.255229  -0.020549
     5  H    0.255252  -0.020548
     6  H    0.255242  -0.020530
     7  H    0.255273  -0.020543
     8  H    0.255265  -0.020529
 Sum of Mulliken charges =   1.00000   1.00000

 Dipole moment (field-independent basis, Debye):
    X=             -0.0000    Y=             -0.0000    Z=             -0.0001  Tot=              0.0001
 Quadrupole moment (field-independent basis, Debye-Ang):
   XX=              2.9764   YY=            -11.0771   ZZ=            -11.0772
   XY=             -0.0015   XZ=              0.0009   YZ=             -0.0000

 Normal termination of Gaussian 16 at Wed Nov 13 12:47:18 2024.
