 Gaussian 16, Revision A.03,
 Gaussian 16:  ES64L-G16RevA.03 25-Dec-2016

 ---------------------------------------------------
 #p UM062X/6-311+G** force int=superfine pop=saveNBO
 ---------------------------------------------------

 -------------------
 Title Card Required
 -------------------
 Symbolic Z-matrix:
 Charge =  0 Multiplicity = 1

                         Standard orientation:
 ---------------------------------------------------------------------
 Center     Atomic      Atomic             Coordinates (Angstroms)
 Number     Number       Type             X           Y           Z
 ---------------------------------------------------------------------
      1         16           0        0.000000    0.000000    2.225200
      2         16           0        0.000000    0.000000   -2.225200
 ---------------------------------------------------------------------

 SCF Done:  E(UM062X) =  -796.013056146     A.U. after    9 cycles

 Unable to determine electronic state:  partially filled degenerate orbitals.
 Alpha  occ. eigenvalues --  -89.98493 -89.98493  -8.34329  -8.34329  -6.26354
 Alpha  occ. eigenvalues --   -6.26354  -6.26337  -6.26337  -6.25517  -6.25517
 Alpha  occ. eigenvalues --   -0.77866  -0.77456  -0.34707  -0.34488  -0.31428
 Alpha  occ. eigenvalues --   -0.30609
 Alpha virt. eigenvalues --   -0.24134  -0.23261   0.02864   0.03937   0.04626
 Alpha virt. eigenvalues --    0.05034   0.06922   0.06949   0.07393   0.11818
 Alpha virt. eigenvalues --    0.30242   0.33027   0.33856   0.35233   0.36082

  Beta  occ. eigenvalues --  -89.98493 -89.98493  -8.34329  -8.34329  -6.26354
  Beta  occ. eigenvalues --   -6.26354  -6.26337  -6.26337  -6.25517  -6.25517
  Beta  occ. eigenvalues --   -0.77866  -0.77456  -0.34707  -0.34488  -0.31428
  Beta  occ. eigenvalues --   -0.30609
  Beta virt. eigenvalues --   -0.24134  -0.23261   0.02864   0.03937   0.04626
  Beta virt. eigenvalues --    0.05034   0.06922   0.06949   0.07393   0.11818
  Beta virt. eigenvalues --    0.30242   0.33027   0.33856   0.35233   0.36082

 Mulliken charges and spin densities:
               1          2
     1  S   -0.000000  -0.000000
     2  S   -0.000000  -0.000000
 Sum of Mulliken charges =  -0.00000  -0.00000

 Dipole moment (field-independent basis, Debye):
    X=             -0.0000    Y=              0.0000    Z=             -0.0000  Tot=              0.0000
 Quadrupole moment (field-independent basis, Debye-Ang):
   XX=            -25.3413   YY=            -30.4094   ZZ=            -22.9681
   XY=              0.0000   XZ=             -0.0000   YZ=              0.0000

 Summary of Natural Population Analysis:

                                       Natural Population
                Natural  -----------------------------------------------
    Atom  No    Charge         Core      Valence    Rydberg      Total
 -----------------------------------------------------------------------
      S    1   -0.00000      5.00000     2.99943    0.00057     8.00000
      S    2   -0.00000      5.00000     2.99943    0.00057     8.00000
 =======================================================================
   * Total *   -0.00000      9.99999     5.99887    0.00114    16.00000

 Normal termination of Gaussian 16 at Mon Apr 21 20:09:30 2025.
