 Gaussian 16, Revision A.03,
 Gaussian 16:  ES64L-G16RevA.03 25-Dec-2016

 --------------------------------------------
 #p opt UM062X/6-311+G** nosymm int=superfine
 --------------------------------------------

 -------------------
 Title Card Required
 -------------------
 Symbolic Z-matrix:
 Charge =  0 Multiplicity = 1

 SCF Done:  E(UM062X) =  -83.1767278908     A.U. after   10 cycles
 SCF Done:  E(UM062X) =  -83.1790192713     A.U. after    9 cycles
 SCF Done:  E(UM062X) =  -83.1790883534     A.U. after    8 cycles
 SCF Done:  E(UM062X) =  -83.1790908117     A.U. after    7 cycles
 SCF Done:  E(UM062X) =  -83.1790914928     A.U. after    7 cycles
 Optimization completed.
    -- Stationary point found.

                          Input orientation:
 ---------------------------------------------------------------------
 Center     Atomic      Atomic             Coordinates (Angstroms)
 Number     Number       Type             X           Y           Z
 ---------------------------------------------------------------------
      1          5           0       -0.977429    0.000000    0.000000
      2          7           0        0.977429    0.000000    0.000000
      3          1           0        1.320409   -0.953971   -0.000007
      4          1           0       -1.189831   -0.590195    1.022242
      5          1           0        1.320241    0.477065   -0.826189
      6          1           0        1.320237    0.477052    0.826198
      7          1           0       -1.189763    1.180399    0.000012
      8          1           0       -1.189833   -0.590175   -1.022253
 ---------------------------------------------------------------------

 Alpha  occ. eigenvalues --  -14.79992  -6.98867  -1.02547  -0.60193  -0.60192
 Alpha  occ. eigenvalues --   -0.56278  -0.40354  -0.35159  -0.35158
 Alpha virt. eigenvalues --   -0.00810   0.04501   0.04514   0.04514   0.08387
 Alpha virt. eigenvalues --    0.10990   0.10990   0.14376   0.15587   0.15588
 Alpha virt. eigenvalues --    0.16195   0.21053   0.21053   0.24444   0.31117

  Beta  occ. eigenvalues --  -14.79992  -6.98867  -1.02547  -0.60193  -0.60192
  Beta  occ. eigenvalues --   -0.56278  -0.40354  -0.35159  -0.35158
  Beta virt. eigenvalues --   -0.00810   0.04501   0.04514   0.04514   0.08387
  Beta virt. eigenvalues --    0.10990   0.10990   0.14376   0.15587   0.15588
  Beta virt. eigenvalues --    0.16195   0.21053   0.21053   0.24444   0.31117

 Mulliken charges and spin densities:
               1          2
     1  B   -0.112130  -0.000000
     2  N   -0.641324  -0.000000
     3  H    0.294046   0.000000
     4  H   -0.042896   0.000000
     5  H    0.294052  -0.000000
     6  H    0.294052   0.000000
     7  H   -0.042905  -0.000000
     8  H   -0.042896  -0.000000
 Sum of Mulliken charges =  -0.00000   0.00000

 Dipole moment (field-independent basis, Debye):
    X=              4.6042    Y=              0.0001    Z=              0.0000  Tot=              4.6042
 Quadrupole moment (field-independent basis, Debye-Ang):
   XX=            -14.9817   YY=            -16.0462   ZZ=            -16.0463
   XY=             -0.0001   XZ=             -0.0000   YZ=              0.0000

 Normal termination of Gaussian 16 at Mon Apr 21 17:31:56 2025.
