 Gaussian 16, Revision A.03,
 Gaussian 16:  ES64L-G16RevA.03 25-Dec-2016

 --------------------------------------------
 #p opt UM062X/6-311+G** nosymm int=superfine
 --------------------------------------------

 -------------------
 Title Card Required
 -------------------
 Symbolic Z-matrix:
 Charge =  0 Multiplicity = 1

 SCF Done:  E(UM062X) =  -683.729278004     A.U. after   10 cycles
 SCF Done:  E(UM062X) =  -683.730463103     A.U. after   10 cycles
 SCF Done:  E(UM062X) =  -683.730518964     A.U. after    9 cycles
 Optimization completed.
    -- Stationary point found.

                          Input orientation:
 ---------------------------------------------------------------------
 Center     Atomic      Atomic             Coordinates (Angstroms)
 Number     Number       Type             X           Y           Z
 ---------------------------------------------------------------------
      1         15           0       -1.434490    0.000000    0.000000
      2         15           0        1.434490    0.000000    0.000000
      3          1           0       -1.397848   -1.421272    0.000000
      4          1           0        1.397848    1.421272    0.000000
 ---------------------------------------------------------------------

 Alpha  occ. eigenvalues --  -78.07773 -78.07773  -6.89737  -6.89735  -5.01185
 Alpha  occ. eigenvalues --   -5.01184  -5.01136  -5.01135  -5.00969  -5.00968
 Alpha  occ. eigenvalues --   -0.70375  -0.66054  -0.40899  -0.39771  -0.30473
 Alpha  occ. eigenvalues --   -0.26747
 Alpha virt. eigenvalues --   -0.13729  -0.07540   0.01912   0.03358   0.03861
 Alpha virt. eigenvalues --    0.04639   0.04978   0.06119   0.06758   0.08576
 Alpha virt. eigenvalues --    0.09221   0.12602   0.28113   0.29749   0.30369

  Beta  occ. eigenvalues --  -78.07773 -78.07773  -6.89737  -6.89735  -5.01185
  Beta  occ. eigenvalues --   -5.01184  -5.01136  -5.01135  -5.00969  -5.00968
  Beta  occ. eigenvalues --   -0.70375  -0.66054  -0.40899  -0.39771  -0.30473
  Beta  occ. eigenvalues --   -0.26747
  Beta virt. eigenvalues --   -0.13729  -0.07540   0.01912   0.03358   0.03861
  Beta virt. eigenvalues --    0.04639   0.04978   0.06119   0.06758   0.08576
  Beta virt. eigenvalues --    0.09221   0.12602   0.28113   0.29749   0.30369

 Mulliken charges and spin densities:
               1          2
     1  P    0.007074  -0.000000
     2  P    0.007074   0.000000
     3  H   -0.007074   0.000000
     4  H   -0.007074  -0.000000
 Sum of Mulliken charges =  -0.00000   0.00000

 Dipole moment (field-independent basis, Debye):
    X=              0.0000    Y=             -0.0000    Z=              0.0000  Tot=              0.0000
 Quadrupole moment (field-independent basis, Debye-Ang):
   XX=            -27.9117   YY=            -28.0739   ZZ=            -30.3716
   XY=              2.6762   XZ=             -0.0000   YZ=              0.0000

 Normal termination of Gaussian 16 at Mon Apr 21 21:11:35 2025.
