 Gaussian 16, Revision A.03,
 Gaussian 16:  ES64L-G16RevA.03 25-Dec-2016

 ---------------------------------------
 #p UM062X/6-311+G** force int=superfine
 ---------------------------------------

 -------------------
 Title Card Required
 -------------------
 Symbolic Z-matrix:
 Charge =  0 Multiplicity = 1

                         Standard orientation:
 ---------------------------------------------------------------------
 Center     Atomic      Atomic             Coordinates (Angstroms)
 Number     Number       Type             X           Y           Z
 ---------------------------------------------------------------------
      1          6           0        0.000000    1.040709    0.000000
      2          6           0       -0.000000   -1.040709    0.000000
      3          1           0       -0.976049    1.496795    0.000000
      4          1           0        0.976175    1.496823    0.000000
      5          1           0        0.976049   -1.496795    0.000000
      6          1           0       -0.976175   -1.496823    0.000000
 ---------------------------------------------------------------------

 SCF Done:  E(UM062X) =  -78.3541092236     A.U. after    8 cycles

 The electronic state is 1-AG.
 Alpha  occ. eigenvalues --  -10.61394 -10.61382  -0.77194  -0.71838  -0.53056
 Alpha  occ. eigenvalues --   -0.50296  -0.36989  -0.25736
 Alpha virt. eigenvalues --   -0.07181   0.00965   0.03362   0.05381   0.07276
 Alpha virt. eigenvalues --    0.08200   0.09173   0.09922   0.11348   0.15226
 Alpha virt. eigenvalues --    0.16426   0.20373   0.21340   0.27985   0.39511

  Beta  occ. eigenvalues --  -10.61394 -10.61382  -0.77194  -0.71838  -0.53056
  Beta  occ. eigenvalues --   -0.50296  -0.36989  -0.25736
  Beta virt. eigenvalues --   -0.07181   0.00965   0.03362   0.05381   0.07276
  Beta virt. eigenvalues --    0.08200   0.09173   0.09922   0.11348   0.15226
  Beta virt. eigenvalues --    0.16426   0.20373   0.21340   0.27985   0.39511

 Mulliken charges and spin densities:
               1          2
     1  C   -0.364213  -0.000000
     2  C   -0.364213  -0.000000
     3  H    0.182105  -0.000000
     4  H    0.182108   0.000000
     5  H    0.182105  -0.000000
     6  H    0.182108   0.000000
 Sum of Mulliken charges =  -0.00000   0.00000

 Dipole moment (field-independent basis, Debye):
    X=             -0.0000    Y=              0.0000    Z=              0.0000  Tot=              0.0000
 Quadrupole moment (field-independent basis, Debye-Ang):
   XX=            -12.0625   YY=            -11.1088   ZZ=            -18.3041
   XY=              0.0002   XZ=              0.0000   YZ=              0.0000

 Normal termination of Gaussian 16 at Tue Nov 19 11:50:15 2024.
