 Gaussian 16, Revision A.03,
 Gaussian 16:  ES64L-G16RevA.03 25-Dec-2016

 ---------------------------------------
 #p UM062X/6-311+G** force int=superfine
 ---------------------------------------

 -------------------
 Title Card Required
 -------------------
 Symbolic Z-matrix:
 Charge =  0 Multiplicity = 1

                         Standard orientation:
 ---------------------------------------------------------------------
 Center     Atomic      Atomic             Coordinates (Angstroms)
 Number     Number       Type             X           Y           Z
 ---------------------------------------------------------------------
      1          6           0        0.542312    0.248205    0.451958
      2          6           0       -0.542312   -0.248205   -0.451958
      3          1           0       -0.562570    0.302010   -1.395481
      4          1           0        1.528041    0.141760   -0.006728
      5          1           0       -1.528041   -0.141762    0.006728
      6          1           0       -0.410409   -1.304922   -0.695561
      7          1           0        0.562570   -0.302010    1.395481
      8          1           0        0.410411    1.304922    0.695561
 ---------------------------------------------------------------------

 SCF Done:  E(UM062X) =  -79.7965725763     A.U. after    8 cycles

 The electronic state is 1-A.
 Alpha  occ. eigenvalues --  -10.51974 -10.51931  -0.85445  -0.69850  -0.50477
 Alpha  occ. eigenvalues --   -0.50477  -0.43395  -0.39947  -0.39947
 Alpha virt. eigenvalues --    0.02176   0.04120   0.05448   0.05448   0.08792
 Alpha virt. eigenvalues --    0.08792   0.08895   0.13970   0.18811   0.18811
 Alpha virt. eigenvalues --    0.20970   0.20970   0.24128   0.27536   0.30009

  Beta  occ. eigenvalues --  -10.51974 -10.51931  -0.85445  -0.69850  -0.50477
  Beta  occ. eigenvalues --   -0.50477  -0.43395  -0.39947  -0.39947
  Beta virt. eigenvalues --    0.02176   0.04120   0.05448   0.05448   0.08792
  Beta virt. eigenvalues --    0.08792   0.08895   0.13970   0.18811   0.18811
  Beta virt. eigenvalues --    0.20970   0.20970   0.24128   0.27536   0.30009

 Mulliken charges and spin densities:
               1          2
     1  C   -0.467030   0.000000
     2  C   -0.467030  -0.000000
     3  H    0.155677  -0.000000
     4  H    0.155677  -0.000000
     5  H    0.155677  -0.000000
     6  H    0.155677  -0.000000
     7  H    0.155677  -0.000000
     8  H    0.155677  -0.000000
 Sum of Mulliken charges =  -0.00000  -0.00000

 Dipole moment (field-independent basis, Debye):
    X=             -0.0000    Y=             -0.0000    Z=             -0.0000  Tot=              0.0000
 Quadrupole moment (field-independent basis, Debye-Ang):
   XX=            -15.3163   YY=            -15.0410   ZZ=            -15.2099
   XY=             -0.1594   XZ=             -0.2903   YZ=             -0.1329

 Normal termination of Gaussian 16 at Tue Nov 19 12:43:13 2024.
