 Gaussian 16, Revision A.03,
 Gaussian 16:  ES64L-G16RevA.03 25-Dec-2016

 ---------------------------------------------------
 #p UM062X/6-311+G** force int=superfine pop=saveNBO
 ---------------------------------------------------

 -------------------
 Title Card Required
 -------------------
 Symbolic Z-matrix:
 Charge =  0 Multiplicity = 1

                         Standard orientation:
 ---------------------------------------------------------------------
 Center     Atomic      Atomic             Coordinates (Angstroms)
 Number     Number       Type             X           Y           Z
 ---------------------------------------------------------------------
      1         15           0        0.000000    0.000000    2.313495
      2         15           0        0.000000    0.000000   -2.313495
 ---------------------------------------------------------------------

 SCF Done:  E(UM062X) =  -682.247489846     A.U. after    9 cycles

 The electronic state is 1-SGG.
 Alpha  occ. eigenvalues --  -78.11560 -78.11560  -6.93274  -6.93274  -5.04570
 Alpha  occ. eigenvalues --   -5.04570  -5.04557  -5.04557  -5.04557  -5.04557
 Alpha  occ. eigenvalues --   -0.63939  -0.63345  -0.25387  -0.24448  -0.24448
 Alpha virt. eigenvalues --   -0.18149  -0.18149  -0.17025   0.02219   0.03399
 Alpha virt. eigenvalues --    0.04336   0.04336   0.06265   0.06282   0.06282
 Alpha virt. eigenvalues --    0.09932   0.28310   0.30220   0.30220   0.32322

  Beta  occ. eigenvalues --  -78.11560 -78.11560  -6.93274  -6.93274  -5.04570
  Beta  occ. eigenvalues --   -5.04570  -5.04557  -5.04557  -5.04557  -5.04557
  Beta  occ. eigenvalues --   -0.63939  -0.63345  -0.25387  -0.24448  -0.24448
  Beta virt. eigenvalues --   -0.18149  -0.18149  -0.17025   0.02219   0.03399
  Beta virt. eigenvalues --    0.04336   0.04336   0.06265   0.06282   0.06282
  Beta virt. eigenvalues --    0.09932   0.28310   0.30220   0.30220   0.32322

 Mulliken charges and spin densities:
               1          2
     1  P   -0.000000   0.000000
     2  P   -0.000000   0.000000
 Sum of Mulliken charges =  -0.00000   0.00000

 Dipole moment (field-independent basis, Debye):
    X=             -0.0000    Y=              0.0000    Z=             -0.0000  Tot=              0.0000
 Quadrupole moment (field-independent basis, Debye-Ang):
   XX=            -29.3652   YY=            -29.3652   ZZ=            -25.0413
   XY=              0.0000   XZ=             -0.0000   YZ=              0.0000

 Summary of Natural Population Analysis:

                                       Natural Population
                Natural  -----------------------------------------------
    Atom  No    Charge         Core      Valence    Rydberg      Total
 -----------------------------------------------------------------------
      P    1   -0.00000      5.00000     2.49959    0.00041     7.50000
      P    2   -0.00000      5.00000     2.49959    0.00041     7.50000
 =======================================================================
   * Total *   -0.00000     10.00000     4.99918    0.00083    15.00000

 Normal termination of Gaussian 16 at Mon Apr 21 21:22:56 2025.
