 Gaussian 16, Revision A.03,
 Gaussian 16:  ES64L-G16RevA.03 25-Dec-2016

 --------------------------------------------
 #p opt UM062X/6-311+G** nosymm int=superfine
 --------------------------------------------

 -------------------
 Title Card Required
 -------------------
 Symbolic Z-matrix:
 Charge =  1 Multiplicity = 2

 SCF Done:  E(UM062X) =  -78.1833273859     A.U. after    9 cycles
 SCF Done:  E(UM062X) =  -78.1835411233     A.U. after    8 cycles
 SCF Done:  E(UM062X) =  -78.1835548924     A.U. after    6 cycles
 Optimization completed.
    -- Stationary point found.

                          Input orientation:
 ---------------------------------------------------------------------
 Center     Atomic      Atomic             Coordinates (Angstroms)
 Number     Number       Type             X           Y           Z
 ---------------------------------------------------------------------
      1          6           0       -0.721030    0.000000    0.000000
      2          6           0        0.721030    0.000000    0.000000
      3          1           0       -1.269958   -0.937190   -0.000000
      4          1           0       -1.270126    0.937022   -0.000000
      5          1           0        1.269958    0.937190    0.000000
      6          1           0        1.270126   -0.937022   -0.000000
 ---------------------------------------------------------------------

 Alpha  occ. eigenvalues --  -10.89804 -10.89735  -1.17610  -0.97882  -0.84416
 Alpha  occ. eigenvalues --   -0.78935  -0.73192  -0.66001
 Alpha virt. eigenvalues --   -0.29954  -0.14668  -0.12703  -0.12314  -0.09617
 Alpha virt. eigenvalues --   -0.07738  -0.06924  -0.04777  -0.04489  -0.02433
 Alpha virt. eigenvalues --   -0.00634   0.01525   0.06415   0.10678   0.20155

  Beta  occ. eigenvalues --  -10.89575 -10.89519  -1.13696  -0.95943  -0.83345
  Beta  occ. eigenvalues --   -0.77976  -0.72867
  Beta virt. eigenvalues --   -0.41673  -0.22766  -0.16422  -0.12627  -0.12474
  Beta virt. eigenvalues --   -0.10083  -0.08596  -0.06985  -0.04751  -0.03733
  Beta virt. eigenvalues --   -0.01926  -0.00973   0.02010   0.07803   0.11139

 Mulliken charges and spin densities:
               1          2
     1  C   -0.053130   0.537897
     2  C   -0.053130   0.537897
     3  H    0.276559  -0.018951
     4  H    0.276571  -0.018947
     5  H    0.276559  -0.018951
     6  H    0.276571  -0.018947
 Sum of Mulliken charges =   1.00000   1.00000

 Dipole moment (field-independent basis, Debye):
    X=             -0.0000    Y=              0.0000    Z=             -0.0000  Tot=              0.0000
 Quadrupole moment (field-independent basis, Debye-Ang):
   XX=             -5.4111   YY=             -8.4571   ZZ=            -11.5553
   XY=             -0.0002   XZ=              0.0000   YZ=             -0.0000

 Normal termination of Gaussian 16 at Tue Nov 19 11:00:50 2024.
