 Gaussian 16, Revision A.03,
 Gaussian 16:  ES64L-G16RevA.03 25-Dec-2016

 --------------------------------------------
 #p opt UM062X/6-311+G** nosymm int=superfine
 --------------------------------------------

 -------------------
 Title Card Required
 -------------------
 Symbolic Z-matrix:
 Charge =  0 Multiplicity = 1

 SCF Done:  E(UM062X) =  -579.898077580     A.U. after    9 cycles
 SCF Done:  E(UM062X) =  -579.901573393     A.U. after    9 cycles
 SCF Done:  E(UM062X) =  -579.901586956     A.U. after    7 cycles
 Optimization completed.
    -- Stationary point found.

                          Input orientation:
 ---------------------------------------------------------------------
 Center     Atomic      Atomic             Coordinates (Angstroms)
 Number     Number       Type             X           Y           Z
 ---------------------------------------------------------------------
      1         14           0       -1.678705    0.000000    0.000000
      2         14           0        1.678705    0.000000    0.000000
      3          1           0       -3.212579    0.000004   -0.000000
      4          1           0        3.212579    0.000072   -0.000000
 ---------------------------------------------------------------------

 Alpha  occ. eigenvalues --  -67.04356 -67.04356  -5.58774  -5.58773  -3.89857
 Alpha  occ. eigenvalues --   -3.89857  -3.89412  -3.89412  -3.89297  -3.89297
 Alpha  occ. eigenvalues --   -0.55249  -0.54016  -0.35875  -0.28904  -0.19332
 Alpha virt. eigenvalues --   -0.10057  -0.09116  -0.07358   0.02262   0.03012
 Alpha virt. eigenvalues --    0.04494   0.05030   0.05695   0.06101   0.07110
 Alpha virt. eigenvalues --    0.08932   0.09902   0.20647   0.29275   0.29636

  Beta  occ. eigenvalues --  -67.04356 -67.04356  -5.58774  -5.58773  -3.89857
  Beta  occ. eigenvalues --   -3.89857  -3.89412  -3.89412  -3.89297  -3.89297
  Beta  occ. eigenvalues --   -0.55249  -0.54016  -0.35875  -0.28904  -0.19332
  Beta virt. eigenvalues --   -0.10057  -0.09116  -0.07358   0.02262   0.03012
  Beta virt. eigenvalues --    0.04494   0.05030   0.05695   0.06101   0.07110
  Beta virt. eigenvalues --    0.08932   0.09902   0.20647   0.29275   0.29636

 Mulliken charges and spin densities:
               1          2
     1  Si   0.142361   0.000000
     2  Si   0.142360  -0.000000
     3  H   -0.142361  -0.000000
     4  H   -0.142361   0.000000
 Sum of Mulliken charges =  -0.00000  -0.00000

 Dipole moment (field-independent basis, Debye):
    X=             -0.0000    Y=              0.0000    Z=             -0.0000  Tot=              0.0000
 Quadrupole moment (field-independent basis, Debye-Ang):
   XX=            -31.9371   YY=            -24.1565   ZZ=            -35.3738
   XY=             -0.0002   XZ=             -0.0000   YZ=              0.0017

 Normal termination of Gaussian 16 at Mon Apr 21 21:24:12 2025.
