 Gaussian 16, Revision A.03,
 Gaussian 16:  ES64L-G16RevA.03 25-Dec-2016

 --------------------------------------------
 #p opt UM062X/6-311+G** nosymm int=superfine
 --------------------------------------------

 -------------------
 Title Card Required
 -------------------
 Symbolic Z-matrix:
 Charge =  1 Multiplicity = 2

 SCF Done:  E(UM062X) =  -582.132752992     A.U. after   11 cycles
 SCF Done:  E(UM062X) =  -582.133561149     A.U. after    9 cycles
 SCF Done:  E(UM062X) =  -582.133808825     A.U. after    9 cycles
 SCF Done:  E(UM062X) =  -582.133809377     A.U. after    8 cycles
 Optimization completed.
    -- Stationary point found.

                          Input orientation:
 ---------------------------------------------------------------------
 Center     Atomic      Atomic             Coordinates (Angstroms)
 Number     Number       Type             X           Y           Z
 ---------------------------------------------------------------------
      1         14           0       -2.451292    0.000000    0.000000
      2         14           0        2.451292    0.000000    0.000000
      3          1           0        2.557963   -1.460430   -0.000010
      4          1           0       -2.557204   -0.730089    1.264906
      5          1           0        2.557729    0.730250   -1.264769
      6          1           0        2.556998    0.730175    1.264875
      7          1           0       -2.557990    1.460427   -0.000133
      8          1           0       -2.557497   -0.730339   -1.264737
 ---------------------------------------------------------------------

 Alpha  occ. eigenvalues --  -67.22158 -67.22158  -5.77004  -5.77004  -4.08692
 Alpha  occ. eigenvalues --   -4.08692  -4.07877  -4.07877  -4.07877  -4.07877
 Alpha  occ. eigenvalues --   -0.80695  -0.80421  -0.61115  -0.61114  -0.61062
 Alpha  occ. eigenvalues --   -0.61061  -0.39466
 Alpha virt. eigenvalues --   -0.30191  -0.11782  -0.11600  -0.09921  -0.09243
 Alpha virt. eigenvalues --   -0.09242  -0.08075  -0.08074  -0.07585  -0.07122
 Alpha virt. eigenvalues --   -0.07121  -0.06046  -0.06043  -0.04815   0.00481

  Beta  occ. eigenvalues --  -67.21884 -67.21884  -5.76923  -5.76921  -4.08052
  Beta  occ. eigenvalues --   -4.08052  -4.07783  -4.07783  -4.07783  -4.07783
  Beta  occ. eigenvalues --   -0.78974  -0.78828  -0.61018  -0.61017  -0.60958
  Beta  occ. eigenvalues --   -0.60957
  Beta virt. eigenvalues --   -0.32319  -0.23393  -0.15937  -0.12252  -0.12250
  Beta virt. eigenvalues --   -0.10720  -0.10443  -0.08612  -0.08611  -0.07395
  Beta virt. eigenvalues --   -0.06665  -0.06665  -0.05635  -0.05635  -0.05634

 Mulliken charges and spin densities:
               1          2
     1  Si   0.507808   0.555819
     2  Si   0.507808   0.555819
     3  H   -0.002610  -0.018621
     4  H   -0.002600  -0.018598
     5  H   -0.002595  -0.018601
     6  H   -0.002603  -0.018597
     7  H   -0.002610  -0.018621
     8  H   -0.002597  -0.018600
 Sum of Mulliken charges =   1.00000   1.00000

 Dipole moment (field-independent basis, Debye):
    X=              0.0000    Y=             -0.0000    Z=              0.0001  Tot=              0.0001
 Quadrupole moment (field-independent basis, Debye-Ang):
   XX=              8.2850   YY=            -26.2500   ZZ=            -26.2496
   XY=              0.0009   XZ=              0.0001   YZ=             -0.0000

 Normal termination of Gaussian 16 at Mon Apr 21 20:17:16 2025.
