 Gaussian 16, Revision A.03,
 Gaussian 16:  ES64L-G16RevA.03 25-Dec-2016

 ---------------------------------------------------
 #p UM062X/6-311+G** force int=superfine pop=saveNBO
 ---------------------------------------------------

 -------------------
 Title Card Required
 -------------------
 Symbolic Z-matrix:
 Charge =  0 Multiplicity = 1

                         Standard orientation:
 ---------------------------------------------------------------------
 Center     Atomic      Atomic             Coordinates (Angstroms)
 Number     Number       Type             X           Y           Z
 ---------------------------------------------------------------------
      1          6           0        0.000000   -0.525574    0.000000
      2          8           0        0.000000    0.671048    0.000000
      3          1           0       -0.939299   -1.107469    0.000000
      4          1           0        0.939296   -1.107475    0.000000
 ---------------------------------------------------------------------

 SCF Done:  E(UM062X) =  -114.487100002     A.U. after   10 cycles

 The electronic state is 1-A'.
 Alpha  occ. eigenvalues --  -19.64748 -10.64204  -1.19664  -0.72876  -0.58391
 Alpha  occ. eigenvalues --   -0.54123  -0.47981  -0.34874
 Alpha virt. eigenvalues --   -0.01151   0.01963   0.04616   0.04622   0.07213
 Alpha virt. eigenvalues --    0.16440   0.20572   0.21360   0.24296   0.25790
 Alpha virt. eigenvalues --    0.29843   0.36572   0.50308   0.51450   0.55201

  Beta  occ. eigenvalues --  -19.64748 -10.64204  -1.19664  -0.72876  -0.58391
  Beta  occ. eigenvalues --   -0.54123  -0.47981  -0.34874
  Beta virt. eigenvalues --   -0.01151   0.01963   0.04616   0.04622   0.07213
  Beta virt. eigenvalues --    0.16440   0.20572   0.21360   0.24296   0.25790
  Beta virt. eigenvalues --    0.29843   0.36572   0.50308   0.51450   0.55201

 Mulliken charges and spin densities:
               1          2
     1  C   -0.008430   0.000000
     2  O   -0.237396  -0.000000
     3  H    0.122913  -0.000000
     4  H    0.122913  -0.000000
 Sum of Mulliken charges =  -0.00000   0.00000

 Dipole moment (field-independent basis, Debye):
    X=             -0.0000    Y=             -2.5300    Z=              0.0000  Tot=              2.5300
 Quadrupole moment (field-independent basis, Debye-Ang):
   XX=            -11.5862   YY=            -12.3070   ZZ=            -11.7264
   XY=             -0.0000   XZ=              0.0000   YZ=              0.0000

 Summary of Natural Population Analysis:

                                       Natural Population
                Natural  -----------------------------------------------
    Atom  No    Charge         Core      Valence    Rydberg      Total
 -----------------------------------------------------------------------
      C    1    0.14518      0.99985     1.83749    0.01749     2.85482
      O    2   -0.24881      0.99989     3.24082    0.00810     4.24881
      H    3    0.05182      0.00000     0.44679    0.00140     0.44818
      H    4    0.05182      0.00000     0.44678    0.00140     0.44818
 =======================================================================
   * Total *   -0.00000      1.99974     5.97188    0.02838     8.00000

 Optimization completed.
    -- Stationary point found.

 1\1\GINC-NODE01\Force\UM062X\6-311+G(d,p)\C1H2O1\SZHAO\16-Apr-2025\0\\
 #p UM062X/6-311+G** force int=superfine pop=saveNBO\\Title Card Requir
 ed\\0,1\C,-0.598311,0.,0.0000000325\O,0.598311,0.,0.0000000325\H,-1.18
 020644,-0.93929902,0.0000000325\H,-1.18021258,0.93929601,0.0000000325\
 \Version=ES64L-G16RevA.03\State=1-A'\HF=-114.4871\S2=0.\S2-1=0.\S2A=0.
 \RMSD=1.402e-09\RMSF=3.756e-06\Dipole=-0.9953698,0.,0.\Quadrupole=-0.3
 225008,0.2133471,0.1091537,-0.000005,0.,0.\PG=CS [SG(C1H2O1)]\\@

 Normal termination of Gaussian 16 at Wed Apr 16 02:51:57 2025.
