 Gaussian 16, Revision A.03,
 Gaussian 16:  ES64L-G16RevA.03 25-Dec-2016

 --------------------------------------------
 #p opt UM062X/6-311+G** nosymm int=superfine
 --------------------------------------------

 -------------------
 Title Card Required
 -------------------
 Symbolic Z-matrix:
 Charge =  1 Multiplicity = 2

 SCF Done:  E(UM062X) =  -76.4345308932     A.U. after   15 cycles
 SCF Done:  E(UM062X) =  -76.4680864432     A.U. after   14 cycles
 SCF Done:  E(UM062X) =  -76.5273778548     A.U. after   14 cycles
 SCF Done:  E(UM062X) =  -76.5946543637     A.U. after   15 cycles
 SCF Done:  E(UM062X) =  -76.5946684557     A.U. after   21 cycles
 Optimization completed.
    -- Stationary point found.

                          Input orientation:
 ---------------------------------------------------------------------
 Center     Atomic      Atomic             Coordinates (Angstroms)
 Number     Number       Type             X           Y           Z
 ---------------------------------------------------------------------
      1          6           0       -0.994148    0.000000    0.000000
      2          6           0        0.994148    0.000000    0.000000
      3          1           0       -2.101573    0.000000   -0.000000
      4          1           0        2.101600   -0.000000    0.000000
 ---------------------------------------------------------------------

 Alpha  occ. eigenvalues --  -11.01344 -11.01324  -1.06027  -0.99804  -0.79368
 Alpha  occ. eigenvalues --   -0.59880  -0.57897
 Alpha virt. eigenvalues --   -0.39407  -0.37783  -0.37445  -0.14051  -0.12010
 Alpha virt. eigenvalues --   -0.09804  -0.08610  -0.08389  -0.05378  -0.05105
 Alpha virt. eigenvalues --    0.00056   0.02807   0.05709   0.24152   0.30628

  Beta  occ. eigenvalues --  -11.01069 -11.01056  -1.02802  -0.97885  -0.78237
  Beta  occ. eigenvalues --   -0.56066
  Beta virt. eigenvalues --   -0.38432  -0.35761  -0.35685  -0.30496  -0.14914
  Beta virt. eigenvalues --   -0.12312  -0.10471  -0.08941  -0.08810  -0.05425
  Beta virt. eigenvalues --   -0.05224  -0.00907   0.02888   0.05734   0.24161

 Mulliken charges and spin densities:
               1          2
     1  C    0.119197   0.523535
     2  C    0.119197   0.523533
     3  H    0.380797  -0.023533
     4  H    0.380808  -0.023535
 Sum of Mulliken charges =   1.00000   1.00000

 Dipole moment (field-independent basis, Debye):
    X=              0.0001    Y=             -0.0000    Z=             -0.0000  Tot=              0.0001
 Quadrupole moment (field-independent basis, Debye-Ang):
   XX=              5.9697   YY=            -12.9566   ZZ=            -11.5478
   XY=             -0.0000   XZ=              0.0000   YZ=             -0.8346

 Normal termination of Gaussian 16 at Tue Nov 19 13:47:17 2024.
