 Gaussian 16, Revision A.03,
 Gaussian 16:  ES64L-G16RevA.03 25-Dec-2016

 --------------------------------------------
 #p opt UM062X/6-311+G** nosymm int=superfine
 --------------------------------------------

 -------------------
 Title Card Required
 -------------------
 Symbolic Z-matrix:
 Charge =  0 Multiplicity = 1

 SCF Done:  E(UM062X) =  -83.1735897515     A.U. after   10 cycles
 SCF Done:  E(UM062X) =  -83.1765581550     A.U. after    9 cycles
 SCF Done:  E(UM062X) =  -83.1766599134     A.U. after    8 cycles
 SCF Done:  E(UM062X) =  -83.1766628724     A.U. after    7 cycles
 SCF Done:  E(UM062X) =  -83.1766638272     A.U. after    7 cycles
 Optimization completed.
    -- Stationary point found.

                          Input orientation:
 ---------------------------------------------------------------------
 Center     Atomic      Atomic             Coordinates (Angstroms)
 Number     Number       Type             X           Y           Z
 ---------------------------------------------------------------------
      1          5           0       -1.002429    0.000000    0.000000
      2          7           0        1.002429    0.000000    0.000000
      3          1           0        1.344262   -0.954121   -0.000004
      4          1           0       -1.199791   -0.590931    1.023513
      5          1           0        1.344082    0.477142   -0.826322
      6          1           0        1.344078    0.477134    0.826329
      7          1           0       -1.199727    1.181866    0.000009
      8          1           0       -1.199793   -0.590916   -1.023521
 ---------------------------------------------------------------------

 Alpha  occ. eigenvalues --  -14.79560  -6.99228  -1.02082  -0.59814  -0.59813
 Alpha  occ. eigenvalues --   -0.56024  -0.40025  -0.35434  -0.35434
 Alpha virt. eigenvalues --   -0.00701   0.04350   0.04560   0.04560   0.08387
 Alpha virt. eigenvalues --    0.10993   0.10993   0.13694   0.15699   0.15700
 Alpha virt. eigenvalues --    0.16183   0.21023   0.21023   0.24270   0.31011

  Beta  occ. eigenvalues --  -14.79560  -6.99228  -1.02082  -0.59814  -0.59813
  Beta  occ. eigenvalues --   -0.56024  -0.40025  -0.35434  -0.35434
  Beta virt. eigenvalues --   -0.00701   0.04350   0.04560   0.04560   0.08387
  Beta virt. eigenvalues --    0.10993   0.10993   0.13694   0.15699   0.15700
  Beta virt. eigenvalues --    0.16183   0.21023   0.21023   0.24270   0.31011

 Mulliken charges and spin densities:
               1          2
     1  B   -0.096110  -0.000000
     2  N   -0.653702   0.000000
     3  H    0.291233  -0.000000
     4  H   -0.041296  -0.000000
     5  H    0.291239  -0.000000
     6  H    0.291239  -0.000000
     7  H   -0.041305  -0.000000
     8  H   -0.041296  -0.000000
 Sum of Mulliken charges =  -0.00000  -0.00000

 Dipole moment (field-independent basis, Debye):
    X=              4.4521    Y=              0.0001    Z=              0.0000  Tot=              4.4521
 Quadrupole moment (field-independent basis, Debye-Ang):
   XX=            -14.8486   YY=            -16.0205   ZZ=            -16.0205
   XY=             -0.0001   XZ=             -0.0000   YZ=              0.0000

 Normal termination of Gaussian 16 at Mon Apr 21 17:31:51 2025.
