 Gaussian 16, Revision A.03,
 Gaussian 16:  ES64L-G16RevA.03 25-Dec-2016

 --------------------------------------------
 #p opt UM062X/6-311+G** nosymm int=superfine
 --------------------------------------------

 -------------------
 Title Card Required
 -------------------
 Symbolic Z-matrix:
 Charge =  0 Multiplicity = 1

 SCF Done:  E(UM062X) =  -380.930725183     A.U. after   22 cycles
 SCF Done:  E(UM062X) =  -380.930726896     A.U. after   15 cycles
 SCF Done:  E(UM062X) =  -380.930731389     A.U. after   17 cycles
 SCF Done:  E(UM062X) =  -380.930731513     A.U. after   14 cycles
 SCF Done:  E(UM062X) =  -380.930731409     A.U. after   17 cycles
 SCF Done:  E(UM062X) =  -380.930731607     A.U. after   13 cycles
 Optimization completed.
    -- Stationary point found.

                          Input orientation:
 ---------------------------------------------------------------------
 Center     Atomic      Atomic             Coordinates (Angstroms)
 Number     Number       Type             X           Y           Z
 ---------------------------------------------------------------------
      1          6           0       -2.280452    0.000000    0.000000
      2         15           0        2.280452    0.000000    0.000000
      3          1           0       -3.017597   -0.825983   -0.045178
      4          1           0        1.960672   -1.381970   -0.084772
      5          1           0       -2.930438    0.895878    0.049960
 ---------------------------------------------------------------------

 Alpha  occ. eigenvalues --  -78.04788 -10.61813  -6.87061  -4.99077  -4.98299
 Alpha  occ. eigenvalues --   -4.97836  -0.76572  -0.65925  -0.48568  -0.38579
 Alpha  occ. eigenvalues --   -0.32480  -0.24705
 Alpha virt. eigenvalues --   -0.11671  -0.09106   0.01520   0.03598   0.04546
 Alpha virt. eigenvalues --    0.05935   0.06897   0.07119   0.08762   0.10122
 Alpha virt. eigenvalues --    0.13398   0.17418   0.18986   0.31238   0.33319

  Beta  occ. eigenvalues --  -78.04788 -10.61813  -6.87061  -4.99077  -4.98299
  Beta  occ. eigenvalues --   -4.97836  -0.76572  -0.65925  -0.48568  -0.38579
  Beta  occ. eigenvalues --   -0.32480  -0.24705
  Beta virt. eigenvalues --   -0.11671  -0.09106   0.01520   0.03598   0.04546
  Beta virt. eigenvalues --    0.05935   0.06897   0.07119   0.08762   0.10122
  Beta virt. eigenvalues --    0.13398   0.17418   0.18986   0.31238   0.33319

 Mulliken charges and spin densities:
               1          2
     1  C   -0.277391   0.000000
     2  P    0.040693  -0.000000
     3  H    0.134705  -0.000000
     4  H   -0.032516   0.000000
     5  H    0.134509  -0.000000
 Sum of Mulliken charges =  -0.00000   0.00000

 Dipole moment (field-independent basis, Debye):
    X=             -2.4308    Y=             -0.5684    Z=             -0.0341  Tot=              2.4966
 Quadrupole moment (field-independent basis, Debye-Ang):
   XX=            -11.8324   YY=            -21.3131   ZZ=            -25.1935
   XY=             -2.3667   XZ=             -0.1417   YZ=              0.2422

 Normal termination of Gaussian 16 at Mon Apr 21 22:39:10 2025.
