 Gaussian 16, Revision A.03,
 Gaussian 16:  ES64L-G16RevA.03 25-Dec-2016

 --------------------------------------------
 #p opt UM062X/6-311+G** nosymm int=superfine
 --------------------------------------------

 -------------------
 Title Card Required
 -------------------
 Symbolic Z-matrix:
 Charge =  1 Multiplicity = 2

 SCF Done:  E(UM062X) =  -92.5744659324     A.U. after   18 cycles
 SCF Done:  E(UM062X) =  -92.5747836249     A.U. after   10 cycles
 Optimization completed.
    -- Stationary point found.

                          Input orientation:
 ---------------------------------------------------------------------
 Center     Atomic      Atomic             Coordinates (Angstroms)
 Number     Number       Type             X           Y           Z
 ---------------------------------------------------------------------
      1          6           0       -1.876540    0.000000    0.000000
      2          7           0        1.876540    0.000000    0.000000
      3          1           0       -2.993433    0.000000    0.000000
 ---------------------------------------------------------------------

 Alpha  occ. eigenvalues --  -15.21352 -10.97947  -1.16812  -0.99040  -0.71869
 Alpha  occ. eigenvalues --   -0.68828  -0.65631
 Alpha virt. eigenvalues --   -0.42171  -0.34379  -0.32873  -0.13760  -0.09837
 Alpha virt. eigenvalues --   -0.07918  -0.07204  -0.04251  -0.02258  -0.01755
 Alpha virt. eigenvalues --   -0.01719   0.07059   0.25528   0.35039   0.35269

  Beta  occ. eigenvalues --  -15.18755 -10.98325  -1.05009  -1.01226  -0.66859
  Beta  occ. eigenvalues --   -0.50639
  Beta virt. eigenvalues --   -0.42982  -0.38716  -0.36256  -0.34008  -0.13553
  Beta virt. eigenvalues --   -0.10264  -0.08436  -0.08012  -0.04756  -0.02544
  Beta virt. eigenvalues --   -0.02236  -0.01728   0.05302   0.26134   0.34618

 Mulliken charges and spin densities:
               1          2
     1  C    0.297116  -0.470486
     2  N    0.455328   1.455168
     3  H    0.247557   0.015318
 Sum of Mulliken charges =   1.00000   1.00000

 Dipole moment (field-independent basis, Debye):
    X=             -3.0278    Y=              0.0000    Z=              0.0000  Tot=              3.0278
 Quadrupole moment (field-independent basis, Debye-Ang):
   XX=             16.6948   YY=            -10.2155   ZZ=            -10.4651
   XY=              0.0000   XZ=              0.0000   YZ=             -0.9019

 Normal termination of Gaussian 16 at Mon Apr 21 18:34:39 2025.
