 Gaussian 16, Revision A.03,
 Gaussian 16:  ES64L-G16RevA.03 25-Dec-2016

 --------------------------------------------
 #p opt UM062X/6-311+G** nosymm int=superfine
 --------------------------------------------

 -------------------
 Title Card Required
 -------------------
 Symbolic Z-matrix:
 Charge =  0 Multiplicity = 1

 SCF Done:  E(UM062X) =  -797.383868873     A.U. after   14 cycles
 SCF Done:  E(UM062X) =  -797.383981258     A.U. after   13 cycles
 SCF Done:  E(UM062X) =  -797.384136685     A.U. after   14 cycles
 SCF Done:  E(UM062X) =  -797.384328935     A.U. after   16 cycles
 SCF Done:  E(UM062X) =  -797.384585116     A.U. after   15 cycles
 SCF Done:  E(UM062X) =  -797.384706530     A.U. after   16 cycles
 SCF Done:  E(UM062X) =  -797.384721978     A.U. after   15 cycles
 SCF Done:  E(UM062X) =  -797.384708149     A.U. after   13 cycles
 SCF Done:  E(UM062X) =  -797.384716227     A.U. after   17 cycles
 SCF Done:  E(UM062X) =  -797.384721473     A.U. after   17 cycles
 SCF Done:  E(UM062X) =  -797.384721581     A.U. after   12 cycles
 SCF Done:  E(UM062X) =  -797.384721948     A.U. after   12 cycles
 SCF Done:  E(UM062X) =  -797.384722708     A.U. after   13 cycles
 Optimization completed.
    -- Stationary point found.

                          Input orientation:
 ---------------------------------------------------------------------
 Center     Atomic      Atomic             Coordinates (Angstroms)
 Number     Number       Type             X           Y           Z
 ---------------------------------------------------------------------
      1         16           0       -2.293191    0.000000    0.000000
      2         16           0        2.293191    0.000000    0.000000
      3          1           0       -2.142164   -1.271085   -0.416895
      4          1           0        2.138831    0.436289    1.264072
 ---------------------------------------------------------------------

 Alpha  occ. eigenvalues --  -89.94371 -89.94371  -8.30629  -8.30628  -6.22771
 Alpha  occ. eigenvalues --   -6.22771  -6.22527  -6.22526  -6.21958  -6.21957
 Alpha  occ. eigenvalues --   -0.81388  -0.81158  -0.47363  -0.47332  -0.33412
 Alpha  occ. eigenvalues --   -0.33298  -0.30180
 Alpha virt. eigenvalues --   -0.22384   0.01851   0.02974   0.04378   0.04865
 Alpha virt. eigenvalues --    0.06539   0.06602   0.07250   0.07423   0.08518
 Alpha virt. eigenvalues --    0.12925   0.30997   0.31453   0.32633   0.35075

  Beta  occ. eigenvalues --  -89.94371 -89.94371  -8.30629  -8.30628  -6.22771
  Beta  occ. eigenvalues --   -6.22771  -6.22527  -6.22526  -6.21958  -6.21957
  Beta  occ. eigenvalues --   -0.81388  -0.81158  -0.47363  -0.47332  -0.33412
  Beta  occ. eigenvalues --   -0.33298  -0.30180
  Beta virt. eigenvalues --   -0.22384   0.01851   0.02974   0.04378   0.04865
  Beta virt. eigenvalues --    0.06539   0.06602   0.07250   0.07423   0.08518
  Beta virt. eigenvalues --    0.12925   0.30997   0.31453   0.32633   0.35075

 Mulliken charges and spin densities:
               1          2
     1  S   -0.081402   0.000000
     2  S   -0.081241   0.000000
     3  H    0.081318   0.000000
     4  H    0.081325   0.000000
 Sum of Mulliken charges =   0.00000   0.00000

 Dipole moment (field-independent basis, Debye):
    X=             -0.0017    Y=             -0.6926    Z=              0.7034  Tot=              0.9871
 Quadrupole moment (field-independent basis, Debye-Ang):
   XX=            -25.8689   YY=            -28.0660   ZZ=            -28.1416
   XY=              3.1312   XZ=              3.0799   YZ=              2.4354

 Normal termination of Gaussian 16 at Mon Apr 21 21:20:24 2025.
