 Gaussian 16, Revision A.03,
 Gaussian 16:  ES64L-G16RevA.03 25-Dec-2016

 --------------------------------------------
 #p opt UM062X/6-311+G** nosymm int=superfine
 --------------------------------------------

 -------------------
 Title Card Required
 -------------------
 Symbolic Z-matrix:
 Charge =  1 Multiplicity = 2

 SCF Done:  E(UM062X) =  -580.958901799     A.U. after   10 cycles
 SCF Done:  E(UM062X) =  -580.959043264     A.U. after    8 cycles
 SCF Done:  E(UM062X) =  -580.959085491     A.U. after    9 cycles
 SCF Done:  E(UM062X) =  -580.958765762     A.U. after   10 cycles
 SCF Done:  E(UM062X) =  -580.959089803     A.U. after    7 cycles
 SCF Done:  E(UM062X) =  -580.959089793     A.U. after    7 cycles
 SCF Done:  E(UM062X) =  -580.959089888     A.U. after    7 cycles
 Optimization completed.
    -- Stationary point found.

                          Input orientation:
 ---------------------------------------------------------------------
 Center     Atomic      Atomic             Coordinates (Angstroms)
 Number     Number       Type             X           Y           Z
 ---------------------------------------------------------------------
      1         14           0       -1.316295    0.000000    0.000000
      2         14           0        1.316295    0.000000    0.000000
      3          1           0       -2.019274   -1.287436   -0.000645
      4          1           0        2.019274    1.287436    0.000643
      5          1           0       -2.019277    1.287435    0.000599
      6          1           0        2.019277   -1.287434   -0.000603
 ---------------------------------------------------------------------

 Alpha  occ. eigenvalues --  -67.26390 -67.26390  -5.80839  -5.80837  -4.12512
 Alpha  occ. eigenvalues --   -4.12509  -4.11787  -4.11773  -4.11677  -4.11676
 Alpha  occ. eigenvalues --   -0.83815  -0.78940  -0.64698  -0.63280  -0.56682
 Alpha  occ. eigenvalues --   -0.45090
 Alpha virt. eigenvalues --   -0.28988  -0.23210  -0.15333  -0.13511  -0.11170
 Alpha virt. eigenvalues --   -0.11105  -0.09411  -0.08912  -0.08224  -0.07526
 Alpha virt. eigenvalues --   -0.06945  -0.05748  -0.01371   0.03727   0.10069

  Beta  occ. eigenvalues --  -67.26101 -67.26101  -5.80755  -5.80754  -4.11799
  Beta  occ. eigenvalues --   -4.11796  -4.11723  -4.11706  -4.11572  -4.11570
  Beta  occ. eigenvalues --   -0.81747  -0.77563  -0.64608  -0.63382  -0.56020
  Beta virt. eigenvalues --   -0.30364  -0.23947  -0.20875  -0.15306  -0.14454
  Beta virt. eigenvalues --   -0.12096  -0.10948  -0.09292  -0.09147  -0.07768
  Beta virt. eigenvalues --   -0.07028  -0.06651  -0.03896  -0.02857   0.03610

 Mulliken charges and spin densities:
               1          2
     1  Si   0.434808   0.553488
     2  Si   0.434809   0.553488
     3  H    0.032596  -0.026744
     4  H    0.032596  -0.026744
     5  H    0.032596  -0.026744
     6  H    0.032596  -0.026744
 Sum of Mulliken charges =   1.00000   1.00000

 Dipole moment (field-independent basis, Debye):
    X=              0.0000    Y=             -0.0000    Z=              0.0000  Tot=              0.0000
 Quadrupole moment (field-independent basis, Debye-Ang):
   XX=            -11.6410   YY=            -23.5138   ZZ=            -24.1740
   XY=             -0.0000   XZ=             -0.0000   YZ=              0.0003

 Normal termination of Gaussian 16 at Mon Apr 21 20:23:36 2025.
