 Gaussian 16, Revision A.03,
 Gaussian 16:  ES64L-G16RevA.03 25-Dec-2016

 --------------------------------------------
 #p opt UM062X/6-311+G** nosymm int=superfine
 --------------------------------------------

 -------------------
 Title Card Required
 -------------------
 Symbolic Z-matrix:
 Charge =  0 Multiplicity = 1

 SCF Done:  E(UM062X) =  -581.265575554     A.U. after    9 cycles
 SCF Done:  E(UM062X) =  -581.265614598     A.U. after    6 cycles
 SCF Done:  E(UM062X) =  -581.265625488     A.U. after    7 cycles
 Optimization completed.
    -- Stationary point found.

                          Input orientation:
 ---------------------------------------------------------------------
 Center     Atomic      Atomic             Coordinates (Angstroms)
 Number     Number       Type             X           Y           Z
 ---------------------------------------------------------------------
      1         14           0       -1.137518    0.000000    0.000000
      2         14           0        1.137518    0.000000    0.000000
      3          1           0       -1.905541   -1.255316    0.000546
      4          1           0        1.905541    1.255316   -0.000246
      5          1           0       -1.905541    1.255316    0.000022
      6          1           0        1.905541   -1.255316    0.000815
 ---------------------------------------------------------------------

 Alpha  occ. eigenvalues --  -67.00963 -67.00963  -5.55954  -5.55944  -3.87166
 Alpha  occ. eigenvalues --   -3.87156  -3.87027  -3.86968  -3.86960  -3.86956
 Alpha  occ. eigenvalues --   -0.63075  -0.56296  -0.43883  -0.41756  -0.37365
 Alpha  occ. eigenvalues --   -0.23953
 Alpha virt. eigenvalues --   -0.04940   0.00679   0.02238   0.03237   0.03636
 Alpha virt. eigenvalues --    0.04853   0.04922   0.05751   0.05875   0.07269
 Alpha virt. eigenvalues --    0.07599   0.08924   0.13078   0.24086   0.24575

  Beta  occ. eigenvalues --  -67.00963 -67.00963  -5.55954  -5.55944  -3.87166
  Beta  occ. eigenvalues --   -3.87156  -3.87027  -3.86968  -3.86960  -3.86956
  Beta  occ. eigenvalues --   -0.63075  -0.56296  -0.43883  -0.41756  -0.37365
  Beta  occ. eigenvalues --   -0.23953
  Beta virt. eigenvalues --   -0.04940   0.00679   0.02238   0.03237   0.03636
  Beta virt. eigenvalues --    0.04853   0.04922   0.05751   0.05875   0.07269
  Beta virt. eigenvalues --    0.07599   0.08924   0.13078   0.24086   0.24575

 Mulliken charges and spin densities:
               1          2
     1  Si   0.127859   0.000000
     2  Si   0.127858  -0.000000
     3  H   -0.063929  -0.000000
     4  H   -0.063929  -0.000000
     5  H   -0.063929  -0.000000
     6  H   -0.063929   0.000000
 Sum of Mulliken charges =  -0.00000  -0.00000

 Dipole moment (field-independent basis, Debye):
    X=             -0.0000    Y=             -0.0000    Z=             -0.0000  Tot=              0.0000
 Quadrupole moment (field-independent basis, Debye-Ang):
   XX=            -27.3539   YY=            -29.2172   ZZ=            -32.6125
   XY=              0.0000   XZ=              0.0000   YZ=             -0.0011

 Normal termination of Gaussian 16 at Mon Apr 21 20:28:52 2025.
