 Gaussian 16, Revision A.03,
 Gaussian 16:  ES64L-G16RevA.03 25-Dec-2016

 ---------------------------------------------------------------------
 #p opt UM062X/6-311+G** nosymm int=superfine SCF=(Tight,MaxCycle=200)
 ---------------------------------------------------------------------

 -------------------
 Title Card Required
 -------------------
 Symbolic Z-matrix:
 Charge =  1 Multiplicity = 2

 SCF Done:  E(UM062X) =  -1615.53862386     A.U. after   21 cycles
 SCF Done:  E(UM062X) =  -1615.56054896     A.U. after   19 cycles
 SCF Done:  E(UM062X) =  -1615.57055248     A.U. after   19 cycles
 SCF Done:  E(UM062X) =  -1615.56778763     A.U. after   20 cycles
 SCF Done:  E(UM062X) =  -1615.55007743     A.U. after   23 cycles
 SCF Done:  E(UM062X) =  -1615.54641448     A.U. after   22 cycles
 SCF Done:  E(UM062X) =  -1615.57079830     A.U. after   17 cycles
 SCF Done:  E(UM062X) =  -1615.57115189     A.U. after   18 cycles
 SCF Done:  E(UM062X) =  -1615.57140378     A.U. after   17 cycles
 SCF Done:  E(UM062X) =  -1615.57128086     A.U. after   19 cycles
 SCF Done:  E(UM062X) =  -1615.57147443     A.U. after   19 cycles
 SCF Done:  E(UM062X) =  -1615.57149439     A.U. after   15 cycles
 SCF Done:  E(UM062X) =  -1615.57149763     A.U. after   15 cycles
 SCF Done:  E(UM062X) =  -1615.57149926     A.U. after   15 cycles
 SCF Done:  E(UM062X) =  -1615.57149947     A.U. after   12 cycles
 SCF Done:  E(UM062X) =  -1615.57149952     A.U. after   12 cycles
 Optimization completed.
    -- Stationary point found.

                          Input orientation:
 ---------------------------------------------------------------------
 Center     Atomic      Atomic             Coordinates (Angstroms)
 Number     Number       Type             X           Y           Z
 ---------------------------------------------------------------------
      1          6           0       -1.155641    0.000000    0.000000
      2          6           0        1.155641    0.000000    0.000000
      3          6           0       -0.000028   -2.166769    0.000437
      4          6           0       -0.000044   -3.538880    0.000708
      5          6           0       -1.128072   -4.326479    0.297598
      6          6           0       -1.196563   -1.480415    0.279937
      7          6           0        0.656061   -5.723221   -0.172886
      8          1           0        1.263243   -6.601932   -0.337316
      9          6           0       -1.449189    0.856514    1.147334
     10          6           0       -0.656210   -5.723136    0.175125
     11          1           0       -1.263416   -6.601769    0.339887
     12          6           0        1.127953   -4.326622   -0.295915
     13          6           0        1.196495   -1.480530   -0.279427
     14          6           0        1.653311    2.270031   -1.132291
     15          6           0       -1.454727    0.282361   -1.414297
     16          6           0       -1.874606    2.946867    2.351089
     17          1           0       -2.035056    4.018089    2.315009
     18          6           0       -2.292156   -3.657400    0.610788
     19          1           0       -3.206793   -4.185887    0.854743
     20          6           0       -1.555478    1.574777   -2.014216
     21          6           0        2.316806   -2.226953   -0.589783
     22          1           0        3.257231   -1.723432   -0.788120
     23          6           0        1.454608    0.282622    1.414262
     24          6           0        1.555435    1.575135    2.013968
     25          6           0        2.292033   -3.657689   -0.609425
     26          1           0        3.206647   -4.186286   -0.853225
     27          6           0       -1.653046    2.270272    1.131927
     28          6           0       -1.453182    0.230938    2.422330
     29          1           0       -1.270321   -0.830497    2.487432
     30          6           0        1.599919   -0.823628    2.297528
     31          1           0        1.567617   -1.830737    1.912961
     32          6           0       -1.893605    2.298409    3.564380
     33          1           0       -2.069996    2.851312    4.478951
     34          6           0       -2.316907   -2.226671    0.590561
     35          1           0       -3.257326   -1.723045    0.788655
     36          6           0       -1.729151    1.683628   -3.411032
     37          1           0       -1.783677    2.678064   -3.838410
     38          6           0        1.449390    0.856272   -1.147487
     39          6           0       -1.609204    3.131151   -0.019510
     40          1           0       -1.655899    4.188741    0.221366
     41          6           0       -1.858986    0.585600   -4.228731
     42          1           0       -2.010017    0.707828   -5.294254
     43          6           0       -1.536655    2.841040   -1.332953
     44          1           0       -1.529257    3.698860   -1.998513
     45          6           0        1.729106    1.684201    3.410767
     46          1           0        1.783706    2.678704    3.837983
     47          6           0       -1.671223    0.918219    3.594864
     48          1           0       -1.659430    0.384103    4.537181
     49          6           0       -1.600268   -0.824020   -2.297378
     50          1           0       -1.568080   -1.831074   -1.912673
     51          6           0        1.858794    0.586290    4.228649
     52          1           0        2.009779    0.708672    5.294162
     53          6           0        1.874865    2.946454   -2.351547
     54          1           0        2.035314    4.017682   -2.315615
     55          6           0        1.808820   -0.684141    3.652498
     56          1           0        1.931338   -1.570021    4.263560
     57          6           0        1.893760    2.297846   -3.564755
     58          1           0        2.070143    2.850617   -4.479408
     59          6           0        1.609380    3.131120    0.018984
     60          1           0        1.656077    4.188664   -0.222096
     61          6           0       -1.809181   -0.684738   -3.652365
     62          1           0       -1.931809   -1.570704   -4.263278
     63          6           0        1.536742    2.841269    1.332480
     64          1           0        1.529322    3.699216    1.997876
     65          6           0        1.453195    0.230563   -2.422422
     66          1           0        1.270107   -0.830832   -2.487412
     67          6           0        1.671220    0.917683   -3.595055
     68          1           0        1.659309    0.383460   -4.537311
 ---------------------------------------------------------------------

 Alpha  occ. eigenvalues --  -10.71748 -10.71745 -10.68685 -10.68685 -10.68559
 Alpha  occ. eigenvalues --  -10.68558 -10.68367 -10.68367 -10.67973 -10.67973
 Alpha  occ. eigenvalues --  -10.66826 -10.66825 -10.66689 -10.66689 -10.66564
 Alpha  occ. eigenvalues --  -10.66564 -10.66056 -10.66056 -10.65942 -10.65942
 Alpha  occ. eigenvalues --  -10.65798 -10.65797 -10.65743 -10.65743 -10.65706
 Alpha  occ. eigenvalues --  -10.65706 -10.65645 -10.65645 -10.65601 -10.65601
 Alpha  occ. eigenvalues --  -10.65533 -10.65533 -10.65514 -10.65514 -10.65260
 Alpha  occ. eigenvalues --  -10.65260 -10.65124 -10.65036 -10.65035 -10.64115
 Alpha  occ. eigenvalues --  -10.64018 -10.63008  -1.12851  -1.10377  -1.09972
 Alpha  occ. eigenvalues --   -1.08503  -1.07811  -1.06056  -1.04580  -1.02656
 Alpha  occ. eigenvalues --   -1.02181  -1.00671  -1.00535  -0.97925  -0.97674
 Alpha  occ. eigenvalues --   -0.96954  -0.96237  -0.95024  -0.93459  -0.93441
 Alpha  occ. eigenvalues --   -0.92771  -0.91948  -0.87704  -0.87269  -0.84967
 Alpha  occ. eigenvalues --   -0.84719  -0.82989  -0.81550  -0.81299  -0.79891
 Alpha  occ. eigenvalues --   -0.79758  -0.79522  -0.77677  -0.76425  -0.76199
 Alpha  occ. eigenvalues --   -0.75619  -0.75428  -0.73791  -0.70202  -0.69838
 Alpha  occ. eigenvalues --   -0.69135  -0.68421  -0.67743  -0.67583  -0.67003
 Alpha  occ. eigenvalues --   -0.66806  -0.65602  -0.65325  -0.65047  -0.64885
 Alpha  occ. eigenvalues --   -0.63462  -0.63056  -0.62280  -0.62234  -0.61385
 Alpha  occ. eigenvalues --   -0.61201  -0.60732  -0.60381  -0.60149  -0.60028
 Alpha  occ. eigenvalues --   -0.59603  -0.58905  -0.58703  -0.58136  -0.57828
 Alpha  occ. eigenvalues --   -0.57553  -0.56483  -0.55743  -0.55733  -0.55666
 Alpha  occ. eigenvalues --   -0.54977  -0.54280  -0.53410  -0.52853  -0.52721
 Alpha  occ. eigenvalues --   -0.52558  -0.52275  -0.52145  -0.51456  -0.51021
 Alpha  occ. eigenvalues --   -0.50945  -0.50938  -0.50528  -0.49405  -0.48981
 Alpha  occ. eigenvalues --   -0.48923  -0.48533  -0.48012  -0.44458  -0.44035
 Alpha  occ. eigenvalues --   -0.43774  -0.43082  -0.40659  -0.40317  -0.39321
 Alpha  occ. eigenvalues --   -0.38044  -0.37785  -0.37251  -0.33722
 Alpha virt. eigenvalues --   -0.17976  -0.15572  -0.15419  -0.14715  -0.10359
 Alpha virt. eigenvalues --   -0.09921  -0.08766  -0.08613  -0.08330  -0.07631
 Alpha virt. eigenvalues --   -0.07605  -0.07485  -0.06619  -0.06402  -0.06377

  Beta  occ. eigenvalues --  -10.71635 -10.71635 -10.68684 -10.68683 -10.68572
  Beta  occ. eigenvalues --  -10.68572 -10.68325 -10.68325 -10.67940 -10.67939
  Beta  occ. eigenvalues --  -10.66835 -10.66835 -10.66673 -10.66673 -10.66543
  Beta  occ. eigenvalues --  -10.66542 -10.66028 -10.66028 -10.65944 -10.65944
  Beta  occ. eigenvalues --  -10.65810 -10.65810 -10.65736 -10.65735 -10.65692
  Beta  occ. eigenvalues --  -10.65692 -10.65636 -10.65636 -10.65601 -10.65601
  Beta  occ. eigenvalues --  -10.65524 -10.65523 -10.65506 -10.65506 -10.65264
  Beta  occ. eigenvalues --  -10.65264 -10.65108 -10.65031 -10.65031 -10.64114
  Beta  occ. eigenvalues --  -10.64017 -10.63009  -1.12700  -1.10276  -1.09804
  Beta  occ. eigenvalues --   -1.08370  -1.07691  -1.05913  -1.04472  -1.02501
  Beta  occ. eigenvalues --   -1.02040  -1.00525  -1.00380  -0.97816  -0.97574
  Beta  occ. eigenvalues --   -0.96819  -0.96124  -0.94974  -0.93375  -0.93351
  Beta  occ. eigenvalues --   -0.92644  -0.91839  -0.87393  -0.86993  -0.84878
  Beta  occ. eigenvalues --   -0.84640  -0.82915  -0.81424  -0.81219  -0.79792
  Beta  occ. eigenvalues --   -0.79685  -0.79450  -0.77547  -0.76244  -0.76033
  Beta  occ. eigenvalues --   -0.75449  -0.75390  -0.73664  -0.70089  -0.69692
  Beta  occ. eigenvalues --   -0.69017  -0.68324  -0.67653  -0.67512  -0.66876
  Beta  occ. eigenvalues --   -0.66705  -0.65514  -0.65194  -0.64918  -0.64760
  Beta  occ. eigenvalues --   -0.63178  -0.63014  -0.62181  -0.62151  -0.61106
  Beta  occ. eigenvalues --   -0.61028  -0.60576  -0.60247  -0.60092  -0.59966
  Beta  occ. eigenvalues --   -0.59472  -0.58738  -0.58620  -0.58035  -0.57527
  Beta  occ. eigenvalues --   -0.57342  -0.56342  -0.55652  -0.55585  -0.55275
  Beta  occ. eigenvalues --   -0.54962  -0.53869  -0.53204  -0.52754  -0.52623
  Beta  occ. eigenvalues --   -0.52507  -0.52173  -0.52030  -0.51030  -0.50947
  Beta  occ. eigenvalues --   -0.50829  -0.50500  -0.49871  -0.49152  -0.48915
  Beta  occ. eigenvalues --   -0.48779  -0.48461  -0.47582  -0.43864  -0.43537
  Beta  occ. eigenvalues --   -0.43133  -0.42721  -0.40258  -0.40202  -0.38705
  Beta  occ. eigenvalues --   -0.37763  -0.37385  -0.36978
  Beta virt. eigenvalues --   -0.24045  -0.16544  -0.15508  -0.15035  -0.14676
  Beta virt. eigenvalues --   -0.10192  -0.09525  -0.08468  -0.08397  -0.08276
  Beta virt. eigenvalues --   -0.07580  -0.07550  -0.07325  -0.06600  -0.06354

 Mulliken charges and spin densities:
               1          2
     1  C   -0.017882   0.161208
     2  C   -0.018019   0.161228
     3  C    0.170448   0.002317
     4  C    0.111607  -0.002782
     5  C    0.108873   0.006341
     6  C    0.096580  -0.009112
     7  C   -0.301767   0.001587
     8  H    0.176340  -0.000077
     9  C    0.236535   0.022048
    10  C   -0.301885   0.001591
    11  H    0.176340  -0.000077
    12  C    0.108819   0.006344
    13  C    0.096555  -0.009114
    14  C    0.192611   0.063818
    15  C    0.275755   0.001739
    16  C   -0.208919  -0.024719
    17  H    0.164107   0.000709
    18  C   -0.461653  -0.001424
    19  H    0.175431   0.000506
    20  C    0.205895   0.083741
    21  C   -0.153613   0.017221
    22  H    0.174781  -0.000628
    23  C    0.275710   0.001743
    24  C    0.205928   0.083727
    25  C   -0.461563  -0.001425
    26  H    0.175431   0.000506
    27  C    0.192812   0.063802
    28  C   -0.126859   0.019276
    29  H    0.200732  -0.001491
    30  C   -0.275907   0.024121
    31  H    0.223439  -0.000608
    32  C   -0.329387   0.049197
    33  H    0.180970  -0.002570
    34  C   -0.153555   0.017219
    35  H    0.174788  -0.000628
    36  C   -0.122147  -0.033453
    37  H    0.164269   0.001019
    38  C    0.236774   0.022030
    39  C   -0.241216   0.070139
    40  H    0.168256  -0.005001
    41  C   -0.244203   0.037147
    42  H    0.179465  -0.001712
    43  C   -0.209147   0.034116
    44  H    0.159964  -0.002183
    45  C   -0.122222  -0.033449
    46  H    0.164268   0.001019
    47  C   -0.140251   0.007144
    48  H    0.170723  -0.001912
    49  C   -0.276023   0.024130
    50  H    0.223438  -0.000609
    51  C   -0.244217   0.037136
    52  H    0.179464  -0.001712
    53  C   -0.208878  -0.024714
    54  H    0.164104   0.000709
    55  C   -0.237868  -0.016191
    56  H    0.174973   0.000227
    57  C   -0.329466   0.049205
    58  H    0.180970  -0.002570
    59  C   -0.241245   0.070135
    60  H    0.168245  -0.005001
    61  C   -0.237850  -0.016184
    62  H    0.174976   0.000227
    63  C   -0.208959   0.034131
    64  H    0.159964  -0.002184
    65  C   -0.126751   0.019274
    66  H    0.200701  -0.001491
    67  C   -0.140311   0.007155
    68  H    0.170725  -0.001911
 Sum of Mulliken charges =   1.00000   1.00000

 Dipole moment (field-independent basis, Debye):
    X=             -0.0003    Y=              2.5482    Z=             -0.0001  Tot=              2.5482
 Quadrupole moment (field-independent basis, Debye-Ang):
   XX=           -222.4171   YY=           -174.8015   ZZ=           -176.6849
   XY=              0.0013   XZ=             -1.7427   YZ=             -0.0034

 Normal termination of Gaussian 16 at Fri Mar 21 08:28:34 2025.
