 Gaussian 16, Revision A.03,
 Gaussian 16:  ES64L-G16RevA.03 25-Dec-2016

 ---------------------------------------
 #p UM062X/6-311+G** force int=superfine
 ---------------------------------------

 -------------------
 Title Card Required
 -------------------
 Symbolic Z-matrix:
 Charge =  1 Multiplicity = 2

                         Standard orientation:
 ---------------------------------------------------------------------
 Center     Atomic      Atomic             Coordinates (Angstroms)
 Number     Number       Type             X           Y           Z
 ---------------------------------------------------------------------
      1          6           0       -0.088142    0.328633   -1.311935
      2          6           0        0.088128   -0.328630    1.311936
      3          1           0       -0.196349   -1.360703    1.141978
      4          1           0        0.664157   -0.392052   -1.611343
      5          1           0       -0.663936    0.392038    1.611982
      6          1           0        1.137786   -0.065670    1.375601
      7          1           0        0.196181    1.360752   -1.141988
      8          1           0       -1.137748    0.065618   -1.376238
 ---------------------------------------------------------------------

 SCF Done:  E(UM062X) =  -79.3498703315     A.U. after    9 cycles

 The electronic state is 2-A.
 Alpha  occ. eigenvalues --  -10.85457 -10.85453  -1.05369  -1.02623  -0.75643
 Alpha  occ. eigenvalues --   -0.75643  -0.74228  -0.74227  -0.55232
 Alpha virt. eigenvalues --   -0.33416  -0.14782  -0.10474  -0.10474  -0.10053
 Alpha virt. eigenvalues --   -0.06205  -0.06205  -0.05935  -0.03222  -0.03219
 Alpha virt. eigenvalues --   -0.03036   0.01506   0.01509   0.05437   0.07459

  Beta  occ. eigenvalues --  -10.85261 -10.85261  -1.02241  -1.00228  -0.74989
  Beta  occ. eigenvalues --   -0.74989  -0.73701  -0.73701
  Beta virt. eigenvalues --   -0.33418  -0.24149  -0.15512  -0.11115  -0.11115
  Beta virt. eigenvalues --   -0.09707  -0.06530  -0.06530  -0.05922  -0.03237
  Beta virt. eigenvalues --   -0.03234  -0.02261   0.01875   0.01877   0.06036

 Mulliken charges and spin densities:
               1          2
     1  C   -0.278991   0.573626
     2  C   -0.278990   0.573626
     3  H    0.259672  -0.024562
     4  H    0.259653  -0.024522
     5  H    0.259679  -0.024528
     6  H    0.259639  -0.024537
     7  H    0.259674  -0.024562
     8  H    0.259664  -0.024542
 Sum of Mulliken charges =   1.00000   1.00000

 Dipole moment (field-independent basis, Debye):
    X=              0.0000    Y=             -0.0000    Z=             -0.0000  Tot=              0.0000
 Quadrupole moment (field-independent basis, Debye-Ang):
   XX=            -10.9391   YY=            -10.4713   ZZ=             -2.9563
   XY=             -0.1349   XZ=              0.5383   YZ=             -2.0099

 Normal termination of Gaussian 16 at Wed Nov 13 13:02:07 2024.
