 Gaussian 16, Revision A.03,
 Gaussian 16:  ES64L-G16RevA.03 25-Dec-2016

 ---------------------------------------------------
 #p UM062X/6-311+G** force int=superfine pop=saveNBO
 ---------------------------------------------------

 -------------------
 Title Card Required
 -------------------
 Symbolic Z-matrix:
 Charge =  0 Multiplicity = 1

                         Standard orientation:
 ---------------------------------------------------------------------
 Center     Atomic      Atomic             Coordinates (Angstroms)
 Number     Number       Type             X           Y           Z
 ---------------------------------------------------------------------
      1          6           0        0.000000    0.000000   -1.620794
      2         16           0        0.000000    0.000000    0.607798
 ---------------------------------------------------------------------

 SCF Done:  E(UM062X) =  -436.015639194     A.U. after   12 cycles

 The electronic state is 1-SG.
 Alpha  occ. eigenvalues --  -89.95577 -10.78370  -8.31285  -6.23266  -6.22976
 Alpha  occ. eigenvalues --   -6.22976  -0.79147  -0.65971  -0.37736  -0.33585
 Alpha  occ. eigenvalues --   -0.33585
 Alpha virt. eigenvalues --   -0.13966  -0.13966  -0.05050   0.03747   0.05624
 Alpha virt. eigenvalues --    0.05894   0.05894   0.08649   0.09482   0.09482
 Alpha virt. eigenvalues --    0.15870   0.33666   0.35631   0.35631   0.53680

  Beta  occ. eigenvalues --  -89.95577 -10.78370  -8.31285  -6.23266  -6.22976
  Beta  occ. eigenvalues --   -6.22976  -0.79147  -0.65971  -0.37736  -0.33585
  Beta  occ. eigenvalues --   -0.33585
  Beta virt. eigenvalues --   -0.13966  -0.13966  -0.05050   0.03747   0.05624
  Beta virt. eigenvalues --    0.05894   0.05894   0.08649   0.09482   0.09482
  Beta virt. eigenvalues --    0.15870   0.33666   0.35631   0.35631   0.53680

 Mulliken charges and spin densities:
               1          2
     1  C    0.114296  -0.000000
     2  S   -0.114296   0.000000
 Sum of Mulliken charges =   0.00000   0.00000

 Dipole moment (field-independent basis, Debye):
    X=              0.0000    Y=              0.0000    Z=             -0.9589  Tot=              0.9589
 Quadrupole moment (field-independent basis, Debye-Ang):
   XX=            -20.2028   YY=            -20.2028   ZZ=            -17.8556
   XY=              0.0000   XZ=              0.0000   YZ=              0.0000

 Summary of Natural Population Analysis:

                                       Natural Population
                Natural  -----------------------------------------------
    Atom  No    Charge         Core      Valence    Rydberg      Total
 -----------------------------------------------------------------------
      C    1    0.09816      0.99999     1.89816    0.00369     2.90184
      S    2   -0.09816      4.99995     3.09402    0.00418     8.09816
 =======================================================================
   * Total *    0.00000      5.99995     4.99218    0.00787    11.00000

 Normal termination of Gaussian 16 at Mon Apr 21 19:46:29 2025.
