 Gaussian 16, Revision A.03,
 Gaussian 16:  ES64L-G16RevA.03 25-Dec-2016

 --------------------------------------------
 #p opt UM062X/6-311+G** nosymm int=superfine
 --------------------------------------------

 -------------------
 Title Card Required
 -------------------
 Symbolic Z-matrix:
 Charge =  1 Multiplicity = 2

 SCF Done:  E(UM062X) =  -76.1207306853     A.U. after    9 cycles
 SCF Done:  E(UM062X) =  -76.2994867411     A.U. after    9 cycles
 SCF Done:  E(UM062X) =  -76.3819772327     A.U. after   24 cycles
 SCF Done:  E(UM062X) =  -76.3827848320     A.U. after    9 cycles
 SCF Done:  E(UM062X) =  -76.3827877201     A.U. after    7 cycles
 Optimization completed.
    -- Stationary point found.

                          Input orientation:
 ---------------------------------------------------------------------
 Center     Atomic      Atomic             Coordinates (Angstroms)
 Number     Number       Type             X           Y           Z
 ---------------------------------------------------------------------
      1          6           0       -0.434940    0.000000    0.000000
      2          6           0        0.434940    0.000000    0.000000
      3          1           0       -1.503832   -0.000000    0.000000
      4          1           0        1.503832    0.000000   -0.000000
 ---------------------------------------------------------------------

 Alpha  occ. eigenvalues --  -10.91960 -10.87719  -1.34062  -0.94140  -0.91916
 Alpha  occ. eigenvalues --   -0.88109  -0.84172
 Alpha virt. eigenvalues --   -0.16055  -0.14888  -0.14611  -0.13446  -0.11984
 Alpha virt. eigenvalues --   -0.11945  -0.11618  -0.02246  -0.01312  -0.01012
 Alpha virt. eigenvalues --    0.02594   0.03863   0.16924   0.22642   0.23776

  Beta  occ. eigenvalues --  -10.91477 -10.87386  -1.27368  -0.92635  -0.90890
  Beta  occ. eigenvalues --   -0.81458
  Beta virt. eigenvalues --   -0.55650  -0.15477  -0.13841  -0.13214  -0.13121
  Beta virt. eigenvalues --   -0.12077  -0.11838  -0.11685  -0.00715  -0.00674
  Beta virt. eigenvalues --    0.00408   0.03016   0.04382   0.17336   0.22440

 Mulliken charges and spin densities:
               1          2
     1  C    0.256660   0.523162
     2  C    0.256660   0.523162
     3  H    0.243340  -0.023162
     4  H    0.243340  -0.023162
 Sum of Mulliken charges =   1.00000   1.00000

 Dipole moment (field-independent basis, Debye):
    X=             -0.0000    Y=             -0.0000    Z=             -0.0000  Tot=              0.0000
 Quadrupole moment (field-independent basis, Debye-Ang):
   XX=             -2.6892   YY=             -9.4640   ZZ=             -8.8546
   XY=              0.0000   XZ=             -0.0000   YZ=             -0.6348

 Normal termination of Gaussian 16 at Tue Nov 19 12:43:20 2024.
