 Gaussian 16, Revision A.03,
 Gaussian 16:  ES64L-G16RevA.03 25-Dec-2016

 --------------------------------------------
 #p opt UM062X/6-311+G** nosymm int=superfine
 --------------------------------------------

 -------------------
 Title Card Required
 -------------------
 Symbolic Z-matrix:
 Charge =  0 Multiplicity = 1

 SCF Done:  E(UM062X) =  -92.9431523439     A.U. after   10 cycles
 SCF Done:  E(UM062X) =  -93.2707530539     A.U. after   10 cycles
 SCF Done:  E(UM062X) =  -93.4073441312     A.U. after   10 cycles
 SCF Done:  E(UM062X) =  -93.4120211074     A.U. after    9 cycles
 SCF Done:  E(UM062X) =  -93.4143805135     A.U. after    9 cycles
 SCF Done:  E(UM062X) =  -93.4144202584     A.U. after    7 cycles
 SCF Done:  E(UM062X) =  -93.4144428974     A.U. after    7 cycles
 Optimization completed.
    -- Stationary point found.

                          Input orientation:
 ---------------------------------------------------------------------
 Center     Atomic      Atomic             Coordinates (Angstroms)
 Number     Number       Type             X           Y           Z
 ---------------------------------------------------------------------
      1          6           0       -0.431069   -0.000000   -0.000000
      2          7           0        0.713720    0.000000    0.000000
      3          1           0       -1.498712    0.000000    0.000000
 ---------------------------------------------------------------------

 Alpha  occ. eigenvalues --  -14.77836 -10.59508  -1.03983  -0.68874  -0.46730
 Alpha  occ. eigenvalues --   -0.43712  -0.43712
 Alpha virt. eigenvalues --    0.01749   0.03012   0.03012   0.03909   0.08605
 Alpha virt. eigenvalues --    0.08605   0.13285   0.19555   0.19708   0.19708
 Alpha virt. eigenvalues --    0.25969   0.41683   0.56164   0.56164   0.59968

  Beta  occ. eigenvalues --  -14.77836 -10.59508  -1.03983  -0.68874  -0.46730
  Beta  occ. eigenvalues --   -0.43712  -0.43712
  Beta virt. eigenvalues --    0.01749   0.03012   0.03012   0.03909   0.08605
  Beta virt. eigenvalues --    0.08605   0.13285   0.19555   0.19708   0.19708
  Beta virt. eigenvalues --    0.25969   0.41683   0.56164   0.56164   0.59968

 Mulliken charges and spin densities:
               1          2
     1  C    0.047158   0.000000
     2  N   -0.256183  -0.000000
     3  H    0.209025  -0.000000
 Sum of Mulliken charges =  -0.00000  -0.00000

 Dipole moment (field-independent basis, Debye):
    X=             -3.0738    Y=             -0.0000    Z=             -0.0000  Tot=              3.0738
 Quadrupole moment (field-independent basis, Debye-Ang):
   XX=            -10.2086   YY=            -11.8213   ZZ=            -11.8213
   XY=             -0.0000   XZ=             -0.0000   YZ=             -0.0000

 Normal termination of Gaussian 16 at Wed Apr 16 02:23:54 2025.
