 Gaussian 16, Revision A.03,
 Gaussian 16:  ES64L-G16RevA.03 25-Dec-2016

 --------------------------------------------
 #p opt UM062X/6-311+G** nosymm int=superfine
 --------------------------------------------

 -------------------
 Title Card Required
 -------------------
 Symbolic Z-matrix:
 Charge =  0 Multiplicity = 1

 SCF Done:  E(UM062X) =  -94.2685177947     A.U. after   15 cycles
 SCF Done:  E(UM062X) =  -94.2732673784     A.U. after   16 cycles
 SCF Done:  E(UM062X) =  -94.2772567591     A.U. after   16 cycles
 SCF Done:  E(UM062X) =  -94.2775468064     A.U. after   15 cycles
 SCF Done:  E(UM062X) =  -94.2776402332     A.U. after   16 cycles
 SCF Done:  E(UM062X) =  -94.2773385944     A.U. after   16 cycles
 SCF Done:  E(UM062X) =  -94.2776732857     A.U. after   15 cycles
 SCF Done:  E(UM062X) =  -94.2776757961     A.U. after   12 cycles
 SCF Done:  E(UM062X) =  -94.2776852400     A.U. after   15 cycles
 SCF Done:  E(UM062X) =  -94.2776905294     A.U. after   14 cycles
 SCF Done:  E(UM062X) =  -94.2776910904     A.U. after   15 cycles
 SCF Done:  E(UM062X) =  -94.2776911065     A.U. after   18 cycles
 Optimization completed.
    -- Stationary point found.

                          Input orientation:
 ---------------------------------------------------------------------
 Center     Atomic      Atomic             Coordinates (Angstroms)
 Number     Number       Type             X           Y           Z
 ---------------------------------------------------------------------
      1          6           0       -1.381637    0.000000    0.000000
      2          7           0        1.381637    0.000000    0.000000
      3          1           0       -2.197772   -0.740949    0.001580
      4          1           0        1.208975   -1.020425    0.000868
      5          1           0       -1.855085    0.993475   -0.001545
 ---------------------------------------------------------------------

 Alpha  occ. eigenvalues --  -14.79198 -10.65009  -0.85651  -0.78603  -0.51642
 Alpha  occ. eigenvalues --   -0.42440  -0.34735  -0.29792
 Alpha virt. eigenvalues --   -0.10918  -0.07796   0.01343   0.05319   0.06722
 Alpha virt. eigenvalues --    0.07613   0.12734   0.14539   0.16968   0.17354
 Alpha virt. eigenvalues --    0.19169   0.20280   0.26548   0.42539   0.45713

  Beta  occ. eigenvalues --  -14.79198 -10.65009  -0.85651  -0.78603  -0.51642
  Beta  occ. eigenvalues --   -0.42440  -0.34735  -0.29792
  Beta virt. eigenvalues --   -0.10918  -0.07796   0.01343   0.05319   0.06722
  Beta virt. eigenvalues --    0.07613   0.12734   0.14539   0.16968   0.17354
  Beta virt. eigenvalues --    0.19169   0.20280   0.26548   0.42539   0.45713

 Mulliken charges and spin densities:
               1          2
     1  C   -0.287544  -0.000000
     2  N   -0.235272  -0.000000
     3  H    0.164080   0.000000
     4  H    0.193188  -0.000000
     5  H    0.165548   0.000000
 Sum of Mulliken charges =  -0.00000   0.00000

 Dipole moment (field-independent basis, Debye):
    X=             -3.5523    Y=             -1.2094    Z=              0.0014  Tot=              3.7526
 Quadrupole moment (field-independent basis, Debye-Ang):
   XX=             -9.3875   YY=            -12.6457   ZZ=            -15.0684
   XY=             -2.6187   XZ=              0.0025   YZ=             -0.0019

 Normal termination of Gaussian 16 at Mon Apr 21 18:25:39 2025.
