 Gaussian 16, Revision A.03,
 Gaussian 16:  ES64L-G16RevA.03 25-Dec-2016

 --------------------------------------------
 #p opt UM062X/6-311+G** nosymm int=superfine
 --------------------------------------------

 -------------------
 Title Card Required
 -------------------
 Symbolic Z-matrix:
 Charge = -1 Multiplicity = 2

 SCF Done:  E(UM062X) =  -50.5586576622     A.U. after   11 cycles
 SCF Done:  E(UM062X) =  -50.5627290274     A.U. after   35 cycles
 SCF Done:  E(UM062X) =  -50.5629896617     A.U. after   16 cycles
 Optimization completed.
    -- Stationary point found.

                          Input orientation:
 ---------------------------------------------------------------------
 Center     Atomic      Atomic             Coordinates (Angstroms)
 Number     Number       Type             X           Y           Z
 ---------------------------------------------------------------------
      1          5           0       -1.966404    0.000000    0.000000
      2          5           0        1.966404    0.000000    0.000000
      3          1           0       -3.231841   -0.000959   -0.000000
      4          1           0        3.231841    0.000959   -0.000000
 ---------------------------------------------------------------------

 Alpha  occ. eigenvalues --   -6.91282  -6.91282  -0.34852  -0.34698  -0.09753
 Alpha  occ. eigenvalues --   -0.06749   0.02648
 Alpha virt. eigenvalues --    0.10312   0.12346   0.13610   0.15452   0.16138
 Alpha virt. eigenvalues --    0.21586   0.21789   0.21960   0.22583   0.23236
 Alpha virt. eigenvalues --    0.25508   0.32801   0.37154   0.50426   0.57251

  Beta  occ. eigenvalues --   -6.91197  -6.91196  -0.33792  -0.33721  -0.08642
  Beta  occ. eigenvalues --   -0.05731
  Beta virt. eigenvalues --    0.10580   0.11439   0.12272   0.12720   0.13434
  Beta virt. eigenvalues --    0.13718   0.19187   0.20141   0.20415   0.21347
  Beta virt. eigenvalues --    0.21426   0.21922   0.32650   0.37225   0.50132

 Mulliken charges and spin densities:
               1          2
     1  B   -0.409172   0.511595
     2  B   -0.409172   0.511595
     3  H   -0.090828  -0.011595
     4  H   -0.090828  -0.011595
 Sum of Mulliken charges =  -1.00000   1.00000

 Dipole moment (field-independent basis, Debye):
    X=              0.0000    Y=              0.0000    Z=              0.0000  Tot=              0.0000
 Quadrupole moment (field-independent basis, Debye-Ang):
   XX=            -38.9488   YY=            -19.1362   ZZ=            -26.5458
   XY=             -0.0011   XZ=             -0.0000   YZ=              0.0001

 Normal termination of Gaussian 16 at Mon Apr 21 17:33:49 2025.
