 Gaussian 16, Revision A.03,
 Gaussian 16:  ES64L-G16RevA.03 25-Dec-2016

 --------------------------------------------
 #p opt UM062X/6-311+G** nosymm int=superfine
 --------------------------------------------

 -------------------
 Title Card Required
 -------------------
 Symbolic Z-matrix:
 Charge =  0 Multiplicity = 1

 SCF Done:  E(UM062X) =  -79.7861475734     A.U. after    8 cycles
 SCF Done:  E(UM062X) =  -79.7894860898     A.U. after    8 cycles
 SCF Done:  E(UM062X) =  -79.7897027263     A.U. after    7 cycles
 Optimization completed.
    -- Stationary point found.

                          Input orientation:
 ---------------------------------------------------------------------
 Center     Atomic      Atomic             Coordinates (Angstroms)
 Number     Number       Type             X           Y           Z
 ---------------------------------------------------------------------
      1          6           0       -0.832266    0.000000    0.000000
      2          6           0        0.832351    0.000000    0.000000
      3          1           0        1.197049   -0.888358    0.514036
      4          1           0       -1.196967   -0.889357   -0.512300
      5          1           0        1.197053    0.889357    0.512299
      6          1           0        1.197001   -0.001001   -1.026373
      7          1           0       -1.196964    0.888358   -0.514036
      8          1           0       -1.196917    0.001001    1.026372
 ---------------------------------------------------------------------

 Alpha  occ. eigenvalues --  -10.52967 -10.52944  -0.82584  -0.70790  -0.49432
 Alpha  occ. eigenvalues --   -0.49432  -0.41657  -0.41657  -0.39734
 Alpha virt. eigenvalues --    0.02215   0.03929   0.05578   0.05578   0.08697
 Alpha virt. eigenvalues --    0.08697   0.09064   0.13729   0.18519   0.18520
 Alpha virt. eigenvalues --    0.21479   0.21480   0.22955   0.24181   0.27835

  Beta  occ. eigenvalues --  -10.52967 -10.52944  -0.82584  -0.70790  -0.49432
  Beta  occ. eigenvalues --   -0.49432  -0.41657  -0.41657  -0.39734
  Beta virt. eigenvalues --    0.02215   0.03929   0.05578   0.05578   0.08697
  Beta virt. eigenvalues --    0.08697   0.09064   0.13729   0.18519   0.18520
  Beta virt. eigenvalues --    0.21479   0.21480   0.22955   0.24181   0.27835

 Mulliken charges and spin densities:
               1          2
     1  C   -0.480500  -0.000000
     2  C   -0.480500   0.000000
     3  H    0.160167  -0.000000
     4  H    0.160167   0.000000
     5  H    0.160167  -0.000000
     6  H    0.160166  -0.000000
     7  H    0.160167   0.000000
     8  H    0.160166   0.000000
 Sum of Mulliken charges =  -0.00000   0.00000

 Dipole moment (field-independent basis, Debye):
    X=              0.0000    Y=             -0.0000    Z=             -0.0000  Tot=              0.0000
 Quadrupole moment (field-independent basis, Debye-Ang):
   XX=            -15.6247   YY=            -14.9534   ZZ=            -14.9535
   XY=              0.0000   XZ=              0.0001   YZ=             -0.0000

 Normal termination of Gaussian 16 at Tue Nov 19 11:56:46 2024.
