 Gaussian 16, Revision A.03,
 Gaussian 16:  ES64L-G16RevA.03 25-Dec-2016

 --------------------------------------------
 #p opt UM062X/6-311+G** nosymm int=superfine
 --------------------------------------------

 -------------------
 Title Card Required
 -------------------
 Symbolic Z-matrix:
 Charge =  0 Multiplicity = 1

 SCF Done:  E(UM062X) =  -92.8498685077     A.U. after   12 cycles
 SCF Done:  E(UM062X) =  -92.8518399082     A.U. after   11 cycles
 SCF Done:  E(UM062X) =  -92.8518510307     A.U. after    8 cycles
 Optimization completed.
    -- Stationary point found.

                          Input orientation:
 ---------------------------------------------------------------------
 Center     Atomic      Atomic             Coordinates (Angstroms)
 Number     Number       Type             X           Y           Z
 ---------------------------------------------------------------------
      1          6           0       -1.497395    0.000000    0.000000
      2          7           0        1.497395    0.000000    0.000000
      3          1           0       -2.623007    0.000000   -0.000000
 ---------------------------------------------------------------------

 Alpha  occ. eigenvalues --  -14.83379 -10.75800  -0.79748  -0.77497  -0.44790
 Alpha  occ. eigenvalues --   -0.27745  -0.27745
 Alpha virt. eigenvalues --   -0.17088  -0.17088  -0.08766   0.00309   0.06820
 Alpha virt. eigenvalues --    0.06820   0.07541   0.13022   0.17024   0.17172
 Alpha virt. eigenvalues --    0.17172   0.24843   0.42812   0.52420   0.52420

  Beta  occ. eigenvalues --  -14.83379 -10.75800  -0.79748  -0.77497  -0.44790
  Beta  occ. eigenvalues --   -0.27745  -0.27745
  Beta virt. eigenvalues --   -0.17088  -0.17088  -0.08766   0.00309   0.06820
  Beta virt. eigenvalues --    0.06820   0.07541   0.13022   0.17024   0.17172
  Beta virt. eigenvalues --    0.17172   0.24843   0.42812   0.52420   0.52420

 Mulliken charges and spin densities:
               1          2
     1  C    0.027292   0.000000
     2  N   -0.210106  -0.000000
     3  H    0.182814  -0.000000
 Sum of Mulliken charges =  -0.00000  -0.00000

 Dipole moment (field-independent basis, Debye):
    X=             -5.0880    Y=             -0.0000    Z=             -0.0000  Tot=              5.0880
 Quadrupole moment (field-independent basis, Debye-Ang):
   XX=             -5.2908   YY=            -14.3133   ZZ=            -14.3133
   XY=              0.0000   XZ=              0.0000   YZ=             -0.0000

 Normal termination of Gaussian 16 at Mon Apr 21 18:38:47 2025.
