 Gaussian 16, Revision A.03,
 Gaussian 16:  ES64L-G16RevA.03 25-Dec-2016

 --------------------------------------------
 #p opt UM062X/6-311+G** nosymm int=superfine
 --------------------------------------------

 -------------------
 Title Card Required
 -------------------
 Symbolic Z-matrix:
 Charge =  0 Multiplicity = 1

 SCF Done:  E(UM062X) =  -438.493999829     A.U. after   13 cycles
 SCF Done:  E(UM062X) =  -438.507414677     A.U. after   11 cycles
 SCF Done:  E(UM062X) =  -438.513885470     A.U. after   11 cycles
 SCF Done:  E(UM062X) =  -438.513955364     A.U. after   11 cycles
 SCF Done:  E(UM062X) =  -438.513977459     A.U. after   10 cycles
 SCF Done:  E(UM062X) =  -438.514000812     A.U. after   11 cycles
 SCF Done:  E(UM062X) =  -438.514004069     A.U. after    9 cycles
 SCF Done:  E(UM062X) =  -438.514004705     A.U. after   10 cycles
 SCF Done:  E(UM062X) =  -438.514005121     A.U. after    8 cycles
 SCF Done:  E(UM062X) =  -438.514005515     A.U. after   12 cycles
 SCF Done:  E(UM062X) =  -438.514005659     A.U. after   11 cycles
 Optimization completed.
    -- Stationary point found.

                          Input orientation:
 ---------------------------------------------------------------------
 Center     Atomic      Atomic             Coordinates (Angstroms)
 Number     Number       Type             X           Y           Z
 ---------------------------------------------------------------------
      1          6           0       -1.835220    0.000000    0.000000
      2         16           0        1.835220    0.000000    0.000000
      3          1           0        1.792418   -1.343867   -0.002455
      4          1           0       -1.839438    1.080964    0.002306
      5          1           0       -1.882411   -0.535833   -0.937748
      6          1           0       -1.882583   -0.539834    0.935442
 ---------------------------------------------------------------------

 Alpha  occ. eigenvalues --  -89.87877 -10.64880  -8.24160  -6.16207  -6.16138
 Alpha  occ. eigenvalues --   -6.15591  -0.83129  -0.75634  -0.55157  -0.55078
 Alpha  occ. eigenvalues --   -0.42170  -0.28107  -0.27446
 Alpha virt. eigenvalues --   -0.15395   0.01136   0.03822   0.04297   0.05610
 Alpha virt. eigenvalues --    0.07542   0.08408   0.08466   0.10831   0.13554
 Alpha virt. eigenvalues --    0.15777   0.16082   0.21114   0.33979   0.35507

  Beta  occ. eigenvalues --  -89.87877 -10.64880  -8.24160  -6.16207  -6.16138
  Beta  occ. eigenvalues --   -6.15591  -0.83129  -0.75634  -0.55157  -0.55078
  Beta  occ. eigenvalues --   -0.42170  -0.28107  -0.27446
  Beta virt. eigenvalues --   -0.15395   0.01136   0.03822   0.04297   0.05610
  Beta virt. eigenvalues --    0.07542   0.08408   0.08466   0.10831   0.13554
  Beta virt. eigenvalues --    0.15777   0.16082   0.21114   0.33979   0.35507

 Mulliken charges and spin densities:
               1          2
     1  C   -0.395533  -0.000000
     2  S   -0.283033   0.000000
     3  H    0.051611  -0.000000
     4  H    0.210770   0.000000
     5  H    0.208096   0.000000
     6  H    0.208088   0.000000
 Sum of Mulliken charges =  -0.00000  -0.00000

 Dipole moment (field-independent basis, Debye):
    X=             -4.7172    Y=             -0.9512    Z=             -0.0018  Tot=              4.8121
 Quadrupole moment (field-independent basis, Debye-Ang):
   XX=            -20.7391   YY=            -19.5971   ZZ=            -23.6513
   XY=             -1.8285   XZ=             -0.0035   YZ=              0.0074

 Normal termination of Gaussian 16 at Mon Apr 21 19:38:35 2025.
