 Gaussian 16, Revision A.03,
 Gaussian 16:  ES64L-G16RevA.03 25-Dec-2016

 ---------------------------------------
 #p UM062X/6-311+G** force int=superfine
 ---------------------------------------

 -------------------
 Title Card Required
 -------------------
 Symbolic Z-matrix:
 Charge =  0 Multiplicity = 1

                         Standard orientation:
 ---------------------------------------------------------------------
 Center     Atomic      Atomic             Coordinates (Angstroms)
 Number     Number       Type             X           Y           Z
 ---------------------------------------------------------------------
      1          6           0        0.053449    0.206766    0.851759
      2          6           0       -0.053449   -0.206766   -0.851759
      3          1           0        0.209039   -1.255844   -0.969114
      4          1           0       -0.641116   -0.422659    1.403698
      5          1           0        0.641114    0.422659   -1.403699
      6          1           0       -1.073513   -0.030716   -1.185984
      7          1           0       -0.209039    1.255844    0.969114
      8          1           0        1.073512    0.030716    1.185986
 ---------------------------------------------------------------------

 SCF Done:  E(UM062X) =  -79.7794032445     A.U. after    8 cycles

 The electronic state is 1-A.
 Alpha  occ. eigenvalues --  -10.53435 -10.53418  -0.81404  -0.71282  -0.49044
 Alpha  occ. eigenvalues --   -0.49044  -0.42453  -0.42453  -0.37888
 Alpha virt. eigenvalues --    0.02239   0.03749   0.05615   0.05615   0.08645
 Alpha virt. eigenvalues --    0.08645   0.09167   0.13554   0.18409   0.18410
 Alpha virt. eigenvalues --    0.19595   0.21682   0.21682   0.24215   0.27605

  Beta  occ. eigenvalues --  -10.53435 -10.53418  -0.81404  -0.71282  -0.49044
  Beta  occ. eigenvalues --   -0.49044  -0.42453  -0.42453  -0.37888
  Beta virt. eigenvalues --    0.02239   0.03749   0.05615   0.05615   0.08645
  Beta virt. eigenvalues --    0.08645   0.09167   0.13554   0.18409   0.18410
  Beta virt. eigenvalues --    0.19595   0.21682   0.21682   0.24215   0.27605

 Mulliken charges and spin densities:
               1          2
     1  C   -0.486052   0.000000
     2  C   -0.486051  -0.000000
     3  H    0.162017   0.000000
     4  H    0.162017  -0.000000
     5  H    0.162017   0.000000
     6  H    0.162017   0.000000
     7  H    0.162017  -0.000000
     8  H    0.162017   0.000000
 Sum of Mulliken charges =  -0.00000  -0.00000

 Dipole moment (field-independent basis, Debye):
    X=             -0.0000    Y=              0.0000    Z=             -0.0000  Tot=              0.0000
 Quadrupole moment (field-independent basis, Debye-Ang):
   XX=            -14.9407   YY=            -14.9757   ZZ=            -15.5754
   XY=             -0.0097   XZ=             -0.0401   YZ=             -0.1547

 Normal termination of Gaussian 16 at Tue Nov 19 12:46:51 2024.
