 Gaussian 16, Revision A.03,
 Gaussian 16:  ES64L-G16RevA.03 25-Dec-2016

 --------------------------------------------
 #p opt UM062X/6-311+G** nosymm int=superfine
 --------------------------------------------

 -------------------
 Title Card Required
 -------------------
 Symbolic Z-matrix:
 Charge =  1 Multiplicity = 2

 SCF Done:  E(UM062X) =  -579.733375485     A.U. after   18 cycles
 SCF Done:  E(UM062X) =  -579.734579381     A.U. after   15 cycles
 SCF Done:  E(UM062X) =  -579.734676504     A.U. after   15 cycles
 SCF Done:  E(UM062X) =  -579.734752515     A.U. after   16 cycles
 SCF Done:  E(UM062X) =  -579.734811663     A.U. after   16 cycles
 SCF Done:  E(UM062X) =  -579.734846785     A.U. after   16 cycles
 SCF Done:  E(UM062X) =  -579.734857546     A.U. after   14 cycles
 SCF Done:  E(UM062X) =  -579.734860569     A.U. after   13 cycles
 SCF Done:  E(UM062X) =  -579.734861366     A.U. after   12 cycles
 SCF Done:  E(UM062X) =  -579.734861627     A.U. after   12 cycles
 Optimization completed.
    -- Stationary point found.

                          Input orientation:
 ---------------------------------------------------------------------
 Center     Atomic      Atomic             Coordinates (Angstroms)
 Number     Number       Type             X           Y           Z
 ---------------------------------------------------------------------
      1         14           0       -1.277975    0.000000    0.000000
      2         14           0        1.277975    0.000000    0.000000
      3          1           0       -0.107665   -0.939931   -0.705509
      4          1           0        1.727200   -1.206893    0.763715
 ---------------------------------------------------------------------

 Alpha  occ. eigenvalues --  -67.31161 -67.26807  -5.85144  -5.81137  -4.16163
 Alpha  occ. eigenvalues --   -4.15935  -4.15738  -4.12413  -4.12142  -4.11676
 Alpha  occ. eigenvalues --   -0.86680  -0.72905  -0.59225  -0.54626  -0.48233
 Alpha virt. eigenvalues --   -0.31008  -0.27780  -0.18826  -0.15348  -0.13128
 Alpha virt. eigenvalues --   -0.09171  -0.09045  -0.08552  -0.08033  -0.06492
 Alpha virt. eigenvalues --   -0.05963  -0.05777  -0.02092   0.08618   0.12379

  Beta  occ. eigenvalues --  -67.30883 -67.26475  -5.85063  -5.80989  -4.15954
  Beta  occ. eigenvalues --   -4.15663  -4.15215  -4.12054  -4.11686  -4.11445
  Beta  occ. eigenvalues --   -0.84830  -0.70995  -0.58164  -0.52889
  Beta virt. eigenvalues --   -0.32542  -0.29905  -0.25783  -0.17022  -0.15267
  Beta virt. eigenvalues --   -0.14071  -0.09061  -0.08866  -0.08139  -0.07772
  Beta virt. eigenvalues --   -0.06224  -0.05561  -0.05056  -0.01916   0.08679

 Mulliken charges and spin densities:
               1          2
     1  Si   0.719554   0.461515
     2  Si   0.452075   0.552124
     3  H   -0.169942  -0.005998
     4  H   -0.001687  -0.007641
 Sum of Mulliken charges =   1.00000   1.00000

 Dipole moment (field-independent basis, Debye):
    X=             -0.4396    Y=             -0.5166    Z=              0.1056  Tot=              0.6865
 Quadrupole moment (field-independent basis, Debye-Ang):
   XX=            -12.2811   YY=            -23.6636   ZZ=            -22.5718
   XY=             -0.2783   XZ=              0.2325   YZ=             -0.3648

 Normal termination of Gaussian 16 at Mon Apr 21 22:54:05 2025.
