 Gaussian 16, Revision A.03,
 Gaussian 16:  ES64L-G16RevA.03 25-Dec-2016

 --------------------------------------------
 #p opt UM062X/6-311+G** nosymm int=superfine
 --------------------------------------------

 -------------------
 Title Card Required
 -------------------
 Symbolic Z-matrix:
 Charge =  1 Multiplicity = 2

 SCF Done:  E(UM062X) =  -76.5842709871     A.U. after   24 cycles
 SCF Done:  E(UM062X) =  -76.5846051190     A.U. after   25 cycles
 Optimization completed.
    -- Stationary point found.

                          Input orientation:
 ---------------------------------------------------------------------
 Center     Atomic      Atomic             Coordinates (Angstroms)
 Number     Number       Type             X           Y           Z
 ---------------------------------------------------------------------
      1          6           0       -2.007160    0.000000    0.000000
      2          6           0        2.007160    0.000000    0.000000
      3          1           0       -3.124716   -0.000000    0.000000
      4          1           0        3.124715    0.000000    0.000000
 ---------------------------------------------------------------------

 Alpha  occ. eigenvalues --  -10.94249 -10.94249  -0.97939  -0.97839  -0.63619
 Alpha  occ. eigenvalues --   -0.62710  -0.47655
 Alpha virt. eigenvalues --   -0.40604  -0.33076  -0.32819  -0.12126  -0.11255
 Alpha virt. eigenvalues --   -0.07595  -0.07189  -0.05543  -0.04687  -0.04358
 Alpha virt. eigenvalues --   -0.01599  -0.00414   0.05716   0.26816   0.29186

  Beta  occ. eigenvalues --  -10.93836 -10.93836  -0.95546  -0.95509  -0.62276
  Beta  occ. eigenvalues --   -0.61299
  Beta virt. eigenvalues --   -0.31229  -0.30900  -0.29630  -0.29248  -0.12587
  Beta virt. eigenvalues --   -0.11183  -0.06934  -0.06131  -0.06123  -0.03927
  Beta virt. eigenvalues --   -0.02987  -0.02003   0.01146   0.07404   0.25937

 Mulliken charges and spin densities:
               1          2
     1  C    0.272329   0.516400
     2  C    0.272329   0.516400
     3  H    0.227671  -0.016400
     4  H    0.227671  -0.016400
 Sum of Mulliken charges =   1.00000   1.00000

 Dipole moment (field-independent basis, Debye):
    X=             -0.0000    Y=             -0.0000    Z=             -0.0000  Tot=              0.0000
 Quadrupole moment (field-independent basis, Debye-Ang):
   XX=             25.0437   YY=            -11.0727   ZZ=             -9.8897
   XY=              0.0000   XZ=              0.0000   YZ=              0.8069

 Normal termination of Gaussian 16 at Tue Dec  3 11:34:07 2024.
