 Gaussian 16, Revision A.03,
 Gaussian 16:  ES64L-G16RevA.03 25-Dec-2016

 --------------------------------------------
 #p opt UM062X/6-311+G** nosymm int=superfine
 --------------------------------------------

 -------------------
 Title Card Required
 -------------------
 Symbolic Z-matrix:
 Charge =  1 Multiplicity = 2

 SCF Done:  E(UM062X) =  -79.3403725057     A.U. after   11 cycles
 SCF Done:  E(UM062X) =  -79.3411630650     A.U. after   10 cycles
 SCF Done:  E(UM062X) =  -79.3417834738     A.U. after   10 cycles
 SCF Done:  E(UM062X) =  -79.3426804468     A.U. after   11 cycles
 SCF Done:  E(UM062X) =  -79.3429121617     A.U. after    9 cycles
 SCF Done:  E(UM062X) =  -79.3433956856     A.U. after   10 cycles
 SCF Done:  E(UM062X) =  -79.3440921605     A.U. after   11 cycles
 SCF Done:  E(UM062X) =  -79.3446054656     A.U. after   10 cycles
 SCF Done:  E(UM062X) =  -79.3447507770     A.U. after   10 cycles
 SCF Done:  E(UM062X) =  -79.3440513397     A.U. after   11 cycles
 SCF Done:  E(UM062X) =  -79.3296389175     A.U. after   11 cycles
 SCF Done:  E(UM062X) =  -79.3449239267     A.U. after   10 cycles
 SCF Done:  E(UM062X) =  -79.3448632127     A.U. after   12 cycles
 SCF Done:  E(UM062X) =  -79.3449534989     A.U. after   10 cycles
 SCF Done:  E(UM062X) =  -79.3449745533     A.U. after   10 cycles
 SCF Done:  E(UM062X) =  -79.3449937436     A.U. after    9 cycles
 SCF Done:  E(UM062X) =  -79.3450061820     A.U. after   10 cycles
 SCF Done:  E(UM062X) =  -79.3450090089     A.U. after    9 cycles
 SCF Done:  E(UM062X) =  -79.3450091579     A.U. after    8 cycles
 SCF Done:  E(UM062X) =  -79.3450092076     A.U. after    8 cycles
 Optimization completed.
    -- Stationary point found.

                          Input orientation:
 ---------------------------------------------------------------------
 Center     Atomic      Atomic             Coordinates (Angstroms)
 Number     Number       Type             X           Y           Z
 ---------------------------------------------------------------------
      1          6           0       -1.426672    0.000000   -0.000000
      2          6           0        1.426672   -0.000000   -0.000000
      3          1           0        1.485743   -0.936832    0.542231
      4          1           0       -1.484249   -0.937931   -0.540431
      5          1           0        1.485130    0.938036    0.540185
      6          1           0        1.484392   -0.001152   -1.082495
      7          1           0       -1.485681    0.936911   -0.542078
      8          1           0       -1.485026    0.000919    1.082457
 ---------------------------------------------------------------------

 Alpha  occ. eigenvalues --  -10.85291 -10.85287  -1.04765  -1.02637  -0.75227
 Alpha  occ. eigenvalues --   -0.75226  -0.74157  -0.74157  -0.54048
 Alpha virt. eigenvalues --   -0.34377  -0.14470  -0.10398  -0.10397  -0.10097
 Alpha virt. eigenvalues --   -0.06212  -0.06212  -0.05670  -0.03153  -0.02760
 Alpha virt. eigenvalues --   -0.02758   0.01432   0.01435   0.05315   0.07522

  Beta  occ. eigenvalues --  -10.85095 -10.85095  -1.01746  -1.00252  -0.74625
  Beta  occ. eigenvalues --   -0.74624  -0.73646  -0.73646
  Beta virt. eigenvalues --   -0.32945  -0.24842  -0.15458  -0.11122  -0.11122
  Beta virt. eigenvalues --   -0.09820  -0.06493  -0.06492  -0.05716  -0.02886
  Beta virt. eigenvalues --   -0.02883  -0.02338   0.01771   0.01774   0.06084

 Mulliken charges and spin densities:
               1          2
     1  C   -0.275750   0.571485
     2  C   -0.275777   0.571503
     3  H    0.258615  -0.023835
     4  H    0.258555  -0.023831
     5  H    0.258588  -0.023833
     6  H    0.258562  -0.023824
     7  H    0.258615  -0.023837
     8  H    0.258591  -0.023828
 Sum of Mulliken charges =   1.00000   1.00000

 Dipole moment (field-independent basis, Debye):
    X=              0.0000    Y=             -0.0000    Z=             -0.0001  Tot=              0.0001
 Quadrupole moment (field-independent basis, Debye-Ang):
   XX=             -1.4165   YY=            -11.0008   ZZ=            -11.0005
   XY=             -0.0016   XZ=              0.0009   YZ=             -0.0001

 Normal termination of Gaussian 16 at Wed Nov 13 11:44:09 2024.
