 Gaussian 16, Revision A.03,
 Gaussian 16:  ES64L-G16RevA.03 25-Dec-2016

 --------------------------------------------
 #p opt UM062X/6-311+G** nosymm int=superfine
 --------------------------------------------

 -------------------
 Title Card Required
 -------------------
 Symbolic Z-matrix:
 Charge =  0 Multiplicity = 1

 SCF Done:  E(UM062X) =  -77.0289860794     A.U. after   10 cycles
 SCF Done:  E(UM062X) =  -77.1101215534     A.U. after   10 cycles
 SCF Done:  E(UM062X) =  -77.1262155677     A.U. after    9 cycles
 SCF Done:  E(UM062X) =  -77.1265280385     A.U. after    8 cycles
 Optimization completed.
    -- Stationary point found.

                          Input orientation:
 ---------------------------------------------------------------------
 Center     Atomic      Atomic             Coordinates (Angstroms)
 Number     Number       Type             X           Y           Z
 ---------------------------------------------------------------------
      1          6           0       -0.478812    0.000000    0.000000
      2          6           0        0.478812    0.000000    0.000000
      3          1           0       -1.538247    0.000000   -0.000000
      4          1           0        1.538244    0.000000   -0.000000
 ---------------------------------------------------------------------

 Alpha  occ. eigenvalues --  -10.48682 -10.46741  -0.89453  -0.61067  -0.56359
 Alpha  occ. eigenvalues --   -0.41020  -0.41020
 Alpha virt. eigenvalues --    0.02850   0.03427   0.07124   0.07124   0.07469
 Alpha virt. eigenvalues --    0.07469   0.09519   0.16856   0.21093   0.21093
 Alpha virt. eigenvalues --    0.22191   0.25050   0.44002   0.46423   0.53658

  Beta  occ. eigenvalues --  -10.48682 -10.46741  -0.89453  -0.61067  -0.56359
  Beta  occ. eigenvalues --   -0.41020  -0.41020
  Beta virt. eigenvalues --    0.02850   0.03427   0.07124   0.07124   0.07469
  Beta virt. eigenvalues --    0.07469   0.09519   0.16856   0.21093   0.21093
  Beta virt. eigenvalues --    0.22191   0.25050   0.44002   0.46423   0.53658

 Mulliken charges and spin densities:
               1          2
     1  C   -0.124677   0.000000
     2  C   -0.124675  -0.000000
     3  H    0.124676   0.000000
     4  H    0.124675  -0.000000
 Sum of Mulliken charges =  -0.00000   0.00000

 Dipole moment (field-independent basis, Debye):
    X=             -0.0000    Y=              0.0000    Z=             -0.0000  Tot=              0.0000
 Quadrupole moment (field-independent basis, Debye-Ang):
   XX=             -7.5981   YY=            -12.5235   ZZ=            -12.5235
   XY=              0.0000   XZ=              0.0000   YZ=             -0.0000

 Normal termination of Gaussian 16 at Tue Dec  3 19:58:21 2024.
