 Gaussian 16, Revision A.03,
 Gaussian 16:  ES64L-G16RevA.03 25-Dec-2016

 --------------------------------------------
 #p opt UM062X/6-311+G** nosymm int=superfine
 --------------------------------------------

 -------------------
 Title Card Required
 -------------------
 Symbolic Z-matrix:
 Charge =  0 Multiplicity = 1

 SCF Done:  E(UM062X) =  -83.1230136732     A.U. after   10 cycles
 SCF Done:  E(UM062X) =  -83.1384644662     A.U. after    9 cycles
 SCF Done:  E(UM062X) =  -83.1418080884     A.U. after    9 cycles
 SCF Done:  E(UM062X) =  -83.1418317135     A.U. after    7 cycles
 Optimization completed.
    -- Stationary point found.

                          Input orientation:
 ---------------------------------------------------------------------
 Center     Atomic      Atomic             Coordinates (Angstroms)
 Number     Number       Type             X           Y           Z
 ---------------------------------------------------------------------
      1          5           0       -1.827429    0.000000    0.000000
      2          7           0        1.827429    0.000000    0.000000
      3          1           0        2.191235   -0.945373    0.000002
      4          1           0       -1.842498   -0.593993    1.028789
      5          1           0        2.191135    0.472735   -0.818737
      6          1           0        2.191122    0.472732    0.818744
      7          1           0       -1.842519    1.187951    0.000014
      8          1           0       -1.842515   -0.593971   -1.028801
 ---------------------------------------------------------------------

 Alpha  occ. eigenvalues --  -14.73068  -7.04071  -0.96300  -0.57275  -0.54134
 Alpha  occ. eigenvalues --   -0.54134  -0.39705  -0.39705  -0.34438
 Alpha virt. eigenvalues --   -0.01894   0.02458   0.04796   0.04796   0.05268
 Alpha virt. eigenvalues --    0.08488   0.10796   0.10796   0.17635   0.17822
 Alpha virt. eigenvalues --    0.17822   0.19350   0.19350   0.22849   0.27537

  Beta  occ. eigenvalues --  -14.73068  -7.04071  -0.96300  -0.57275  -0.54134
  Beta  occ. eigenvalues --   -0.54134  -0.39705  -0.39705  -0.34438
  Beta virt. eigenvalues --   -0.01894   0.02458   0.04796   0.04796   0.05268
  Beta virt. eigenvalues --    0.08488   0.10796   0.10796   0.17635   0.17822
  Beta virt. eigenvalues --    0.17822   0.19350   0.19350   0.22849   0.27537

 Mulliken charges and spin densities:
               1          2
     1  B    0.016796  -0.000000
     2  N   -0.732444   0.000000
     3  H    0.246512  -0.000000
     4  H   -0.007964   0.000000
     5  H    0.246512  -0.000000
     6  H    0.246512   0.000000
     7  H   -0.007960   0.000000
     8  H   -0.007964  -0.000000
 Sum of Mulliken charges =   0.00000  -0.00000

 Dipole moment (field-independent basis, Debye):
    X=              2.0061    Y=              0.0002    Z=              0.0000  Tot=              2.0061
 Quadrupole moment (field-independent basis, Debye-Ang):
   XX=            -10.4377   YY=            -15.6641   ZZ=            -15.6642
   XY=              0.0000   XZ=             -0.0000   YZ=              0.0000

 Normal termination of Gaussian 16 at Mon Apr 21 17:39:28 2025.
