 Gaussian 16, Revision A.03,
 Gaussian 16:  ES64L-G16RevA.03 25-Dec-2016

 --------------------------------------------
 #p opt UM062X/6-311+G** nosymm int=superfine
 --------------------------------------------

 -------------------
 Title Card Required
 -------------------
 Symbolic Z-matrix:
 Charge = -1 Multiplicity = 2

 SCF Done:  E(UM062X) =  -53.1910418270     A.U. after   12 cycles
 SCF Done:  E(UM062X) =  -53.1964545733     A.U. after   11 cycles
 SCF Done:  E(UM062X) =  -53.1977151087     A.U. after   10 cycles
 SCF Done:  E(UM062X) =  -53.1977228546     A.U. after   10 cycles
 Optimization completed.
    -- Stationary point found.

                          Input orientation:
 ---------------------------------------------------------------------
 Center     Atomic      Atomic             Coordinates (Angstroms)
 Number     Number       Type             X           Y           Z
 ---------------------------------------------------------------------
      1          5           0       -2.565672    0.000000    0.000000
      2          5           0        2.565672    0.000000    0.000000
      3          1           0        2.606931   -1.196994   -0.000016
      4          1           0       -2.606738   -0.598495    1.036634
      5          1           0        2.606912    0.598512   -1.036618
      6          1           0        2.606664    0.598481    1.036644
      7          1           0       -2.606940    1.196994   -0.000001
      8          1           0       -2.606828   -0.598499   -1.036628
 ---------------------------------------------------------------------

 Alpha  occ. eigenvalues --   -6.85840  -6.85839  -0.41059  -0.40898  -0.22977
 Alpha  occ. eigenvalues --   -0.22977  -0.22926  -0.22926   0.01594
 Alpha virt. eigenvalues --    0.09024   0.16055   0.17234   0.17234   0.17807
 Alpha virt. eigenvalues --    0.17848   0.17848   0.23631   0.23836   0.32523
 Alpha virt. eigenvalues --    0.32523   0.32943   0.32944   0.33296   0.38173

  Beta  occ. eigenvalues --   -6.85803  -6.85803  -0.39441  -0.39339  -0.22836
  Beta  occ. eigenvalues --   -0.22835  -0.22769  -0.22769
  Beta virt. eigenvalues --    0.02885   0.12382   0.12641   0.13770   0.13771
  Beta virt. eigenvalues --    0.17183   0.17183   0.18450   0.22691   0.24442
  Beta virt. eigenvalues --    0.30939   0.31558   0.31558   0.31956   0.31957

 Mulliken charges and spin densities:
               1          2
     1  B   -0.367022   0.545372
     2  B   -0.367022   0.545372
     3  H   -0.044322  -0.015115
     4  H   -0.044326  -0.015128
     5  H   -0.044333  -0.015130
     6  H   -0.044323  -0.015128
     7  H   -0.044322  -0.015115
     8  H   -0.044330  -0.015129
 Sum of Mulliken charges =  -1.00000   1.00000

 Dipole moment (field-independent basis, Debye):
    X=              0.0000    Y=             -0.0000    Z=              0.0001  Tot=              0.0001
 Quadrupole moment (field-independent basis, Debye-Ang):
   XX=            -55.0087   YY=            -24.4200   ZZ=            -24.4199
   XY=              0.0001   XZ=              0.0000   YZ=              0.0000

 Normal termination of Gaussian 16 at Mon Apr 21 17:00:27 2025.
