 Gaussian 16, Revision A.03,
 Gaussian 16:  ES64L-G16RevA.03 25-Dec-2016

 --------------------------------------------
 #p opt UM062X/6-311+G** nosymm int=superfine
 --------------------------------------------

 -------------------
 Title Card Required
 -------------------
 Symbolic Z-matrix:
 Charge =  0 Multiplicity = 1

 SCF Done:  E(UM062X) =  -582.394896537     A.U. after   10 cycles
 SCF Done:  E(UM062X) =  -582.397003262     A.U. after    9 cycles
 SCF Done:  E(UM062X) =  -582.397513427     A.U. after    8 cycles
 Optimization completed.
    -- Stationary point found.

                          Input orientation:
 ---------------------------------------------------------------------
 Center     Atomic      Atomic             Coordinates (Angstroms)
 Number     Number       Type             X           Y           Z
 ---------------------------------------------------------------------
      1         14           0       -2.094819    0.000000    0.000000
      2         14           0        2.094819    0.000000    0.000000
      3          1           0        2.506815   -1.416838   -0.000056
      4          1           0       -2.506788   -0.708317    1.227095
      5          1           0        2.506912    0.708490   -1.226954
      6          1           0        2.506797    0.708370    1.227061
      7          1           0       -2.506819    1.416837   -0.000112
      8          1           0       -2.506918   -0.708544   -1.226920
 ---------------------------------------------------------------------

 Alpha  occ. eigenvalues --  -67.01789 -67.01789  -5.56658  -5.56657  -3.87887
 Alpha  occ. eigenvalues --   -3.87887  -3.87662  -3.87662  -3.87662  -3.87662
 Alpha  occ. eigenvalues --   -0.61105  -0.60658  -0.41976  -0.41976  -0.41855
 Alpha  occ. eigenvalues --   -0.41855  -0.22871
 Alpha virt. eigenvalues --   -0.09508   0.02121   0.02919   0.02919   0.03362
 Alpha virt. eigenvalues --    0.05177   0.05177   0.05758   0.06896   0.07374
 Alpha virt. eigenvalues --    0.07374   0.08818   0.08818   0.12685   0.16212

  Beta  occ. eigenvalues --  -67.01789 -67.01789  -5.56658  -5.56657  -3.87887
  Beta  occ. eigenvalues --   -3.87887  -3.87662  -3.87662  -3.87662  -3.87662
  Beta  occ. eigenvalues --   -0.61105  -0.60658  -0.41976  -0.41976  -0.41855
  Beta  occ. eigenvalues --   -0.41855  -0.22871
  Beta virt. eigenvalues --   -0.09508   0.02121   0.02919   0.02919   0.03362
  Beta virt. eigenvalues --    0.05177   0.05177   0.05758   0.06896   0.07374
  Beta virt. eigenvalues --    0.07374   0.08818   0.08818   0.12685   0.16212

 Mulliken charges and spin densities:
               1          2
     1  Si   0.271771  -0.000000
     2  Si   0.271772   0.000000
     3  H   -0.090589   0.000000
     4  H   -0.090591   0.000000
     5  H   -0.090591  -0.000000
     6  H   -0.090591  -0.000000
     7  H   -0.090589   0.000000
     8  H   -0.090591   0.000000
 Sum of Mulliken charges =  -0.00000   0.00000

 Dipole moment (field-independent basis, Debye):
    X=              0.0000    Y=             -0.0000    Z=              0.0000  Tot=              0.0000
 Quadrupole moment (field-independent basis, Debye-Ang):
   XX=            -28.5042   YY=            -32.0906   ZZ=            -32.0906
   XY=             -0.0002   XZ=              0.0000   YZ=              0.0000

 Normal termination of Gaussian 16 at Mon Apr 21 20:20:02 2025.
