 Gaussian 16, Revision A.03,
 Gaussian 16:  ES64L-G16RevA.03 25-Dec-2016

 --------------------------------------------
 #p opt UM062X/6-311+G** nosymm int=superfine
 --------------------------------------------

 -------------------
 Title Card Required
 -------------------
 Symbolic Z-matrix:
 Charge =  0 Multiplicity = 1

 SCF Done:  E(UM062X) =  -683.793546427     A.U. after    9 cycles
 SCF Done:  E(UM062X) =  -683.794197748     A.U. after    8 cycles
 SCF Done:  E(UM062X) =  -683.794209122     A.U. after    8 cycles
 Optimization completed.
    -- Stationary point found.

                          Input orientation:
 ---------------------------------------------------------------------
 Center     Atomic      Atomic             Coordinates (Angstroms)
 Number     Number       Type             X           Y           Z
 ---------------------------------------------------------------------
      1         15           0       -1.234490    0.000000    0.000000
      2         15           0        1.234490    0.000000    0.000000
      3          1           0       -1.252041   -1.420675   -0.000000
      4          1           0        1.252041    1.420675   -0.000000
 ---------------------------------------------------------------------

 Alpha  occ. eigenvalues --  -78.06602 -78.06602  -6.88682  -6.88679  -5.00170
 Alpha  occ. eigenvalues --   -5.00169  -5.00087  -5.00081  -4.99933  -4.99930
 Alpha  occ. eigenvalues --   -0.72598  -0.64412  -0.41342  -0.39970  -0.31839
 Alpha  occ. eigenvalues --   -0.28650
 Alpha virt. eigenvalues --   -0.11586  -0.02532   0.01811   0.03525   0.04278
 Alpha virt. eigenvalues --    0.04435   0.04806   0.06342   0.06914   0.08423
 Alpha virt. eigenvalues --    0.10285   0.12937   0.28123   0.29035   0.30974

  Beta  occ. eigenvalues --  -78.06602 -78.06602  -6.88682  -6.88679  -5.00170
  Beta  occ. eigenvalues --   -5.00169  -5.00087  -5.00081  -4.99933  -4.99930
  Beta  occ. eigenvalues --   -0.72598  -0.64412  -0.41342  -0.39970  -0.31839
  Beta  occ. eigenvalues --   -0.28650
  Beta virt. eigenvalues --   -0.11586  -0.02532   0.01811   0.03525   0.04278
  Beta virt. eigenvalues --    0.04435   0.04806   0.06342   0.06914   0.08423
  Beta virt. eigenvalues --    0.10285   0.12937   0.28123   0.29035   0.30974

 Mulliken charges and spin densities:
               1          2
     1  P    0.011882  -0.000000
     2  P    0.011882   0.000000
     3  H   -0.011882  -0.000000
     4  H   -0.011882   0.000000
 Sum of Mulliken charges =  -0.00000   0.00000

 Dipole moment (field-independent basis, Debye):
    X=             -0.0000    Y=              0.0000    Z=             -0.0000  Tot=              0.0000
 Quadrupole moment (field-independent basis, Debye-Ang):
   XX=            -28.6834   YY=            -27.7416   ZZ=            -29.6309
   XY=              2.5942   XZ=             -0.0000   YZ=             -0.0000

 Normal termination of Gaussian 16 at Mon Apr 21 21:06:42 2025.
