 Gaussian 16, Revision A.03,
 Gaussian 16:  ES64L-G16RevA.03 25-Dec-2016

 ---------------------------------------
 #p UM062X/6-311+G** force int=superfine
 ---------------------------------------

 -------------------
 Title Card Required
 -------------------
 Symbolic Z-matrix:
 Charge =  1 Multiplicity = 2

                         Standard orientation:
 ---------------------------------------------------------------------
 Center     Atomic      Atomic             Coordinates (Angstroms)
 Number     Number       Type             X           Y           Z
 ---------------------------------------------------------------------
      1          6           0        0.000000    0.000000    0.565422
      2          6           0        0.000000    0.000000   -0.565422
      3          1           0        0.000000    0.000000    1.643206
      4          1           0        0.000000    0.000000   -1.643206
 ---------------------------------------------------------------------

 SCF Done:  E(UM062X) =  -76.8744080980     A.U. after    9 cycles

 Unable to determine electronic state:  an orbital has unidentified symmetry.
 Alpha  occ. eigenvalues --  -10.92288 -10.91802  -1.27083  -0.96332  -0.90421
 Alpha  occ. eigenvalues --   -0.76491  -0.73494
 Alpha virt. eigenvalues --   -0.24154  -0.22205  -0.14594  -0.14539  -0.11768
 Alpha virt. eigenvalues --   -0.10767  -0.10495  -0.04379  -0.04369  -0.03855
 Alpha virt. eigenvalues --    0.02348   0.04524   0.17829   0.18156   0.27856

  Beta  occ. eigenvalues --  -10.92012 -10.91559  -1.21911  -0.94779  -0.89787
  Beta  occ. eigenvalues --   -0.70907
  Beta virt. eigenvalues --   -0.48407  -0.20749  -0.18606  -0.15641  -0.13940
  Beta virt. eigenvalues --   -0.11798  -0.11001  -0.10646  -0.03802  -0.03559
  Beta virt. eigenvalues --   -0.02769   0.02317   0.04840   0.18574   0.18614

 Mulliken charges and spin densities:
               1          2
     1  C    0.209892   0.519523
     2  C    0.209892   0.519523
     3  H    0.290108  -0.019523
     4  H    0.290108  -0.019523
 Sum of Mulliken charges =   1.00000   1.00000

 Dipole moment (field-independent basis, Debye):
    X=              0.0000    Y=             -0.0000    Z=             -0.0000  Tot=              0.0000
 Quadrupole moment (field-independent basis, Debye-Ang):
   XX=             -9.2886   YY=            -10.9904   ZZ=             -1.2606
   XY=              0.0000   XZ=             -0.0000   YZ=              0.0000

 Normal termination of Gaussian 16 at Tue Nov 19 13:28:55 2024.
