 Gaussian 16, Revision A.03,
 Gaussian 16:  ES64L-G16RevA.03 25-Dec-2016

 --------------------------------------------
 #p opt UM062X/6-311+G** nosymm int=superfine
 --------------------------------------------

 -------------------
 Title Card Required
 -------------------
 Symbolic Z-matrix:
 Charge =  0 Multiplicity = 1

 SCF Done:  E(UM062X) =  -110.156381210     A.U. after   13 cycles
 SCF Done:  E(UM062X) =  -110.157278692     A.U. after   14 cycles
 SCF Done:  E(UM062X) =  -110.159587453     A.U. after   16 cycles
 SCF Done:  E(UM062X) =  -110.161070552     A.U. after   16 cycles
 SCF Done:  E(UM062X) =  -110.161177474     A.U. after   19 cycles
 SCF Done:  E(UM062X) =  -110.161205602     A.U. after   18 cycles
 SCF Done:  E(UM062X) =  -110.161205636     A.U. after    9 cycles
 Optimization completed.
    -- Stationary point found.

                          Input orientation:
 ---------------------------------------------------------------------
 Center     Atomic      Atomic             Coordinates (Angstroms)
 Number     Number       Type             X           Y           Z
 ---------------------------------------------------------------------
      1          7           0       -1.915428    0.000000    0.000000
      2          7           0        1.915428    0.000000    0.000000
      3          1           0       -1.675594   -1.011356   -0.000000
      4          1           0        1.675594    1.011356   -0.000000
 ---------------------------------------------------------------------

 Alpha  occ. eigenvalues --  -14.88284 -14.88282  -0.92715  -0.92364  -0.48999
 Alpha  occ. eigenvalues --   -0.48841  -0.30371  -0.29604
 Alpha virt. eigenvalues --   -0.22004  -0.21092   0.04779   0.06843   0.10837
 Alpha virt. eigenvalues --    0.11331   0.12917   0.14276   0.15114   0.17218
 Alpha virt. eigenvalues --    0.18522   0.22711   0.53539   0.54393   0.74697

  Beta  occ. eigenvalues --  -14.88284 -14.88282  -0.92715  -0.92364  -0.48999
  Beta  occ. eigenvalues --   -0.48841  -0.30371  -0.29604
  Beta virt. eigenvalues --   -0.22004  -0.21092   0.04779   0.06843   0.10837
  Beta virt. eigenvalues --    0.11331   0.12917   0.14276   0.15114   0.17218
  Beta virt. eigenvalues --    0.18522   0.22711   0.53539   0.54393   0.74697

 Mulliken charges and spin densities:
               1          2
     1  N   -0.233246   0.000003
     2  N   -0.233245  -0.000003
     3  H    0.233245   0.000000
     4  H    0.233245  -0.000000
 Sum of Mulliken charges =   0.00000  -0.00000

 Dipole moment (field-independent basis, Debye):
    X=              0.0000    Y=              0.0000    Z=             -0.0000  Tot=              0.0000
 Quadrupole moment (field-independent basis, Debye-Ang):
   XX=            -15.4470   YY=            -11.3311   ZZ=            -14.1784
   XY=              6.2944   XZ=              0.0000   YZ=              0.0000

 Normal termination of Gaussian 16 at Thu May 15 15:45:40 2025.
