 Gaussian 16, Revision A.03,
 Gaussian 16:  ES64L-G16RevA.03 25-Dec-2016

 ---------------------------------------------------------
 #p opt UM062X/6-311+G** nosymm int=superfine SCF=NoVarAcc
 ---------------------------------------------------------

 -------------------
 Title Card Required
 -------------------
 Symbolic Z-matrix:
 Charge =  0 Multiplicity = 1

 SCF Done:  E(UM062X) =  -78.2057219405     A.U. after    9 cycles
 SCF Done:  E(UM062X) =  -78.2222861475     A.U. after    9 cycles
 SCF Done:  E(UM062X) =  -78.2366896883     A.U. after    8 cycles
 SCF Done:  E(UM062X) =  -78.2369626683     A.U. after    8 cycles
 SCF Done:  E(UM062X) =  -78.2369635991     A.U. after    7 cycles
 Optimization completed.
    -- Stationary point found.

                          Input orientation:
 ---------------------------------------------------------------------
 Center     Atomic      Atomic             Coordinates (Angstroms)
 Number     Number       Type             X           Y           Z
 ---------------------------------------------------------------------
      1          6           0       -3.535595    0.000000    0.000000
      2          6           0        3.535595    0.000000    0.000000
      3          1           0       -4.235815   -0.860759    0.000000
      4          1           0       -4.235788    0.860780    0.000000
      5          1           0        4.235815    0.860759    0.000000
      6          1           0        4.235788   -0.860780    0.000000
 ---------------------------------------------------------------------

 Alpha  occ. eigenvalues --  -10.60452 -10.60452  -0.75367  -0.75367  -0.47214
 Alpha  occ. eigenvalues --   -0.47214  -0.31049  -0.31028
 Alpha virt. eigenvalues --   -0.07896  -0.07876   0.02512   0.02678   0.06465
 Alpha virt. eigenvalues --    0.07419   0.07505   0.08471   0.09263   0.12991
 Alpha virt. eigenvalues --    0.17670   0.18222   0.19761   0.19805   0.43797

  Beta  occ. eigenvalues --  -10.60452 -10.60452  -0.75367  -0.75367  -0.47214
  Beta  occ. eigenvalues --   -0.47214  -0.31049  -0.31028
  Beta virt. eigenvalues --   -0.07896  -0.07876   0.02512   0.02678   0.06465
  Beta virt. eigenvalues --    0.07419   0.07505   0.08471   0.09263   0.12991
  Beta virt. eigenvalues --    0.17670   0.18222   0.19761   0.19805   0.43797

 Mulliken charges and spin densities:
               1          2
     1  C   -0.250562  -0.000000
     2  C   -0.250562   0.000000
     3  H    0.125281  -0.000000
     4  H    0.125281   0.000000
     5  H    0.125281  -0.000000
     6  H    0.125281   0.000000
 Sum of Mulliken charges =  -0.00000   0.00000

 Dipole moment (field-independent basis, Debye):
    X=              0.0000    Y=             -0.0000    Z=              0.0000  Tot=              0.0000
 Quadrupole moment (field-independent basis, Debye-Ang):
   XX=             11.0054   YY=            -14.4826   ZZ=            -12.8706
   XY=             -0.0002   XZ=              0.0000   YZ=             -0.0000

 Normal termination of Gaussian 16 at Tue Dec  3 17:39:54 2024.
