 Gaussian 16, Revision A.03,
 Gaussian 16:  ES64L-G16RevA.03 25-Dec-2016

 --------------------------------------------
 #p opt UM062X/6-311+G** nosymm int=superfine
 --------------------------------------------

 -------------------
 Title Card Required
 -------------------
 Symbolic Z-matrix:
 Charge =  1 Multiplicity = 2

 SCF Done:  E(UM062X) =  -80.1524284628     A.U. after   17 cycles
 SCF Done:  E(UM062X) =  -80.1533107417     A.U. after   12 cycles
 SCF Done:  E(UM062X) =  -80.1533137832     A.U. after   14 cycles
 Optimization completed.
    -- Stationary point found.

                          Input orientation:
 ---------------------------------------------------------------------
 Center     Atomic      Atomic             Coordinates (Angstroms)
 Number     Number       Type             X           Y           Z
 ---------------------------------------------------------------------
      1          5           0       -2.102734    0.000000    0.000000
      2          7           0        2.102734    0.000000    0.000000
      3          1           0       -3.309462   -0.000288    0.000000
      4          1           0        3.138411   -0.000042   -0.000000
 ---------------------------------------------------------------------

 Alpha  occ. eigenvalues --  -14.93662  -7.54265  -1.06886  -0.86582  -0.60648
 Alpha  occ. eigenvalues --   -0.53281  -0.53281
 Alpha virt. eigenvalues --   -0.46234  -0.35319  -0.35319  -0.16648  -0.12398
 Alpha virt. eigenvalues --   -0.09933  -0.09933  -0.09922  -0.03648   0.02230
 Alpha virt. eigenvalues --    0.02230   0.03621   0.07736   0.11871   0.12619

  Beta  occ. eigenvalues --  -14.91168  -7.55494  -0.94023  -0.90246  -0.68754
  Beta  occ. eigenvalues --   -0.54915
  Beta virt. eigenvalues --   -0.36365  -0.36365  -0.18155  -0.18155  -0.14812
  Beta virt. eigenvalues --   -0.10712  -0.09949  -0.09949  -0.06947  -0.03300
  Beta virt. eigenvalues --    0.04275   0.04275   0.06378   0.08907   0.15701

 Mulliken charges and spin densities:
               1          2
     1  B    0.768649  -0.852107
     2  N   -0.239254   2.060348
     3  H    0.221528  -0.142168
     4  H    0.249076  -0.066073
 Sum of Mulliken charges =   1.00000   1.00000

 Dipole moment (field-independent basis, Debye):
    X=             -8.7595    Y=             -0.0003    Z=              0.0000  Tot=              8.7595
 Quadrupole moment (field-independent basis, Debye-Ang):
   XX=             24.1886   YY=            -10.2746   ZZ=            -10.2746
   XY=              0.0003   XZ=             -0.0000   YZ=             -0.0000

 Normal termination of Gaussian 16 at Mon Apr 21 18:00:56 2025.
