 Gaussian 16, Revision A.03,
 Gaussian 16:  ES64L-G16RevA.03 25-Dec-2016

 --------------------------------------------
 #p opt UM062X/6-311+G** nosymm int=superfine
 --------------------------------------------

 -------------------
 Title Card Required
 -------------------
 Symbolic Z-matrix:
 Charge =  0 Multiplicity = 1

 SCF Done:  E(UM062X) =  -76.8947798797     A.U. after   10 cycles
 SCF Done:  E(UM062X) =  -76.9391582882     A.U. after    9 cycles
 SCF Done:  E(UM062X) =  -77.0086862576     A.U. after   10 cycles
 SCF Done:  E(UM062X) =  -77.0458813012     A.U. after   10 cycles
 SCF Done:  E(UM062X) =  -77.0460979134     A.U. after    8 cycles
 Optimization completed.
    -- Stationary point found.

                          Input orientation:
 ---------------------------------------------------------------------
 Center     Atomic      Atomic             Coordinates (Angstroms)
 Number     Number       Type             X           Y           Z
 ---------------------------------------------------------------------
      1          6           0       -0.885803    0.000000    0.000000
      2          6           0        0.885803    0.000000    0.000000
      3          1           0       -1.964612   -0.000006    0.000005
      4          1           0        1.964568   -0.000006    0.000008
 ---------------------------------------------------------------------

 Alpha  occ. eigenvalues --  -10.66845 -10.66818  -0.77146  -0.70165  -0.52144
 Alpha  occ. eigenvalues --   -0.29701  -0.29701
 Alpha virt. eigenvalues --   -0.05736  -0.05736  -0.01878   0.02283   0.04576
 Alpha virt. eigenvalues --    0.08507   0.08507   0.09630   0.10907   0.10907
 Alpha virt. eigenvalues --    0.17435   0.22258   0.26454   0.46878   0.58205

  Beta  occ. eigenvalues --  -10.66845 -10.66818  -0.77146  -0.70165  -0.52144
  Beta  occ. eigenvalues --   -0.29701  -0.29701
  Beta virt. eigenvalues --   -0.05736  -0.05736  -0.01878   0.02283   0.04576
  Beta virt. eigenvalues --    0.08507   0.08507   0.09630   0.10907   0.10907
  Beta virt. eigenvalues --    0.17435   0.22258   0.26454   0.46878   0.58205

 Mulliken charges and spin densities:
               1          2
     1  C   -0.253100  -0.000000
     2  C   -0.253101   0.000000
     3  H    0.253107   0.000000
     4  H    0.253095  -0.000000
 Sum of Mulliken charges =  -0.00000   0.00000

 Dipole moment (field-independent basis, Debye):
    X=             -0.0001    Y=             -0.0000    Z=              0.0000  Tot=              0.0001
 Quadrupole moment (field-independent basis, Debye-Ang):
   XX=             -4.6680   YY=            -15.9916   ZZ=            -15.9916
   XY=             -0.0000   XZ=              0.0000   YZ=             -0.0000

 Normal termination of Gaussian 16 at Tue Dec  3 20:19:08 2024.
