 Gaussian 16, Revision A.03,
 Gaussian 16:  ES64L-G16RevA.03 25-Dec-2016

 ---------------------------------------------------
 #p UM062X/6-311+G** force int=superfine pop=saveNBO
 ---------------------------------------------------

 -------------------
 Title Card Required
 -------------------
 Symbolic Z-matrix:
 Charge =  0 Multiplicity = 1

                         Standard orientation:
 ---------------------------------------------------------------------
 Center     Atomic      Atomic             Coordinates (Angstroms)
 Number     Number       Type             X           Y           Z
 ---------------------------------------------------------------------
      1          8           0        0.000000    0.000000   -2.693424
      2         16           0        0.000000    0.000000    1.346712
 ---------------------------------------------------------------------

 SCF Done:  E(UM062X) =  -473.004049100     A.U. after   18 cycles

 Unable to determine electronic state:  partially filled degenerate orbitals.
 Alpha  occ. eigenvalues --  -89.97043 -19.76865  -8.33095  -6.25892  -6.24300
 Alpha  occ. eigenvalues --   -6.24281  -1.06578  -0.77140  -0.45467  -0.45453
 Alpha  occ. eigenvalues --   -0.34392  -0.34305
 Alpha virt. eigenvalues --   -0.19526  -0.19507   0.03596   0.04783   0.05678
 Alpha virt. eigenvalues --    0.05720   0.14601   0.17810   0.17985   0.22049
 Alpha virt. eigenvalues --    0.33743   0.34946   0.35768   0.58914   0.77484

  Beta  occ. eigenvalues --  -89.97043 -19.76865  -8.33095  -6.25892  -6.24300
  Beta  occ. eigenvalues --   -6.24281  -1.06578  -0.77140  -0.45467  -0.45453
  Beta  occ. eigenvalues --   -0.34392  -0.34305
  Beta virt. eigenvalues --   -0.19526  -0.19507   0.03596   0.04783   0.05678
  Beta virt. eigenvalues --    0.05720   0.14601   0.17810   0.17985   0.22049
  Beta virt. eigenvalues --    0.33743   0.34946   0.35768   0.58914   0.77484

 Mulliken charges and spin densities:
               1          2
     1  O   -0.010710   0.000000
     2  S    0.010710  -0.000000
 Sum of Mulliken charges =  -0.00000  -0.00000

 Dipole moment (field-independent basis, Debye):
    X=              0.0000    Y=              0.0000    Z=              0.2990  Tot=              0.2990
 Quadrupole moment (field-independent basis, Debye-Ang):
   XX=            -21.1419   YY=            -15.6831   ZZ=            -19.0833
   XY=              0.0000   XZ=              0.0000   YZ=              0.0000

 Summary of Natural Population Analysis:

                                       Natural Population
                Natural  -----------------------------------------------
    Atom  No    Charge         Core      Valence    Rydberg      Total
 -----------------------------------------------------------------------
      O    1   -0.00620      1.00000     3.00608    0.00012     4.00620
      S    2    0.00620      4.99999     2.99337    0.00044     7.99380
 =======================================================================
   * Total *    0.00000      5.99999     5.99944    0.00057    12.00000

 Normal termination of Gaussian 16 at Mon Apr 21 20:01:24 2025.
