 Gaussian 16, Revision A.03,
 Gaussian 16:  ES64L-G16RevA.03 25-Dec-2016

 ---------------------------------------
 #p UM062X/6-311+G** force int=superfine
 ---------------------------------------

 -------------------
 Title Card Required
 -------------------
 Symbolic Z-matrix:
 Charge =  1 Multiplicity = 2

                         Standard orientation:
 ---------------------------------------------------------------------
 Center     Atomic      Atomic             Coordinates (Angstroms)
 Number     Number       Type             X           Y           Z
 ---------------------------------------------------------------------
      1          6           0        1.141338   -0.000036   -0.000023
      2          6           0       -1.141338    0.000042    0.000011
      3          1           0       -1.241779   -0.961728   -0.491166
      4          1           0        1.241050   -0.906300    0.587423
      5          1           0       -1.241415    0.906371   -0.587272
      6          1           0       -1.241077    0.055555    1.078586
      7          1           0        1.241798    0.961781    0.491057
      8          1           0        1.241422   -0.055714   -1.078556
 ---------------------------------------------------------------------

 SCF Done:  E(UM062X) =  -79.3638127472     A.U. after    9 cycles

 The electronic state is 2-A.
 Alpha  occ. eigenvalues --  -10.85903 -10.85896  -1.08064  -1.02154  -0.77348
 Alpha  occ. eigenvalues --   -0.77348  -0.74138  -0.74138  -0.59596
 Alpha virt. eigenvalues --   -0.28745  -0.15874  -0.10857  -0.10857  -0.09945
 Alpha virt. eigenvalues --   -0.06757  -0.06281  -0.06281  -0.04723  -0.04721
 Alpha virt. eigenvalues --   -0.02466   0.01676   0.01678   0.04956   0.07314

  Beta  occ. eigenvalues --  -10.85695 -10.85695  -1.04743  -0.99478  -0.76503
  Beta  occ. eigenvalues --   -0.76503  -0.73455  -0.73454
  Beta virt. eigenvalues --   -0.36864  -0.20604  -0.15837  -0.11079  -0.11079
  Beta virt. eigenvalues --   -0.09067  -0.06848  -0.06592  -0.06592  -0.04394
  Beta virt. eigenvalues --   -0.04392  -0.01680   0.02205   0.02207   0.05383

 Mulliken charges and spin densities:
               1          2
     1  C   -0.302840   0.564756
     2  C   -0.302840   0.564756
     3  H    0.267627  -0.021593
     4  H    0.267599  -0.021576
     5  H    0.267614  -0.021584
     6  H    0.267600  -0.021579
     7  H    0.267628  -0.021594
     8  H    0.267613  -0.021586
 Sum of Mulliken charges =   1.00000   1.00000

 Dipole moment (field-independent basis, Debye):
    X=              0.0000    Y=             -0.0000    Z=              0.0000  Tot=              0.0000
 Quadrupole moment (field-independent basis, Debye-Ang):
   XX=             -5.0951   YY=            -10.8616   ZZ=            -10.8617
   XY=              0.0005   XZ=              0.0002   YZ=              0.0000

 Normal termination of Gaussian 16 at Wed Nov 13 13:45:12 2024.
