 Gaussian 16, Revision A.03,
 Gaussian 16:  ES64L-G16RevA.03 25-Dec-2016

 --------------------------------------------
 #p opt UM062X/6-311+G** nosymm int=superfine
 --------------------------------------------

 -------------------
 Title Card Required
 -------------------
 Symbolic Z-matrix:
 Charge =  0 Multiplicity = 1

 SCF Done:  E(UM062X) =  -81.6986285981     A.U. after   24 cycles
 SCF Done:  E(UM062X) =  -81.7175259345     A.U. after   20 cycles
 SCF Done:  E(UM062X) =  -81.7251312374     A.U. after   14 cycles
 SCF Done:  E(UM062X) =  -81.7271363719     A.U. after   16 cycles
 SCF Done:  E(UM062X) =  -81.7310762843     A.U. after   15 cycles
 SCF Done:  E(UM062X) =  -81.7327306850     A.U. after   14 cycles
 SCF Done:  E(UM062X) =  -81.7329130061     A.U. after   14 cycles
 SCF Done:  E(UM062X) =  -81.7330692032     A.U. after   12 cycles
 SCF Done:  E(UM062X) =  -81.7331550474     A.U. after   13 cycles
 SCF Done:  E(UM062X) =  -81.7331784507     A.U. after   11 cycles
 SCF Done:  E(UM062X) =  -81.7331835780     A.U. after   13 cycles
 Optimization completed.
    -- Stationary point found.

                          Input orientation:
 ---------------------------------------------------------------------
 Center     Atomic      Atomic             Coordinates (Angstroms)
 Number     Number       Type             X           Y           Z
 ---------------------------------------------------------------------
      1          5           0       -1.870399    0.000000    0.000000
      2          7           0        1.870399    0.000000    0.000000
      3          1           0       -2.199745   -1.124229   -0.026187
      4          1           0        1.855321    0.802071    0.638189
      5          1           0       -2.199747    1.124212   -0.026866
      6          1           0        1.855320   -0.801681    0.638680
 ---------------------------------------------------------------------

 Alpha  occ. eigenvalues --  -14.71666  -7.18493  -0.87369  -0.63179  -0.51856
 Alpha  occ. eigenvalues --   -0.48011  -0.33291  -0.23294
 Alpha virt. eigenvalues --   -0.11215  -0.09009   0.00636   0.02654   0.04165
 Alpha virt. eigenvalues --    0.05002   0.09275   0.11512   0.13569   0.17405
 Alpha virt. eigenvalues --    0.20005   0.20442   0.21690   0.27367   0.32334

  Beta  occ. eigenvalues --  -14.71666  -7.18493  -0.87369  -0.63179  -0.51856
  Beta  occ. eigenvalues --   -0.48011  -0.33291  -0.23294
  Beta virt. eigenvalues --   -0.11215  -0.09009   0.00636   0.02654   0.04165
  Beta virt. eigenvalues --    0.05002   0.09275   0.11512   0.13569   0.17405
  Beta virt. eigenvalues --    0.20005   0.20442   0.21690   0.27367   0.32334

 Mulliken charges and spin densities:
               1          2
     1  B    0.150166   0.000000
     2  N   -0.693083  -0.000000
     3  H    0.068577   0.000000
     4  H    0.202881   0.000000
     5  H    0.068577   0.000000
     6  H    0.202881   0.000000
 Sum of Mulliken charges =  -0.00000  -0.00000

 Dipole moment (field-independent basis, Debye):
    X=             -5.4355    Y=              0.0006    Z=              1.8780  Tot=              5.7508
 Quadrupole moment (field-independent basis, Debye-Ang):
   XX=            -13.8914   YY=            -13.4599   ZZ=            -14.6038
   XY=              0.0012   XZ=              3.7711   YZ=             -0.0004

 Normal termination of Gaussian 16 at Mon Apr 21 17:53:11 2025.
