 Gaussian 16, Revision A.03,
 Gaussian 16:  ES64L-G16RevA.03 25-Dec-2016

 --------------------------------------------
 #p opt UM062X/6-311+G** nosymm int=superfine
 --------------------------------------------

 -------------------
 Title Card Required
 -------------------
 Symbolic Z-matrix:
 Charge =  1 Multiplicity = 2

 SCF Done:  E(UM062X) =  -77.8368809385     A.U. after   11 cycles
 SCF Done:  E(UM062X) =  -77.8861815630     A.U. after   10 cycles
 SCF Done:  E(UM062X) =  -77.9237140987     A.U. after    9 cycles
 SCF Done:  E(UM062X) =  -77.9338150359     A.U. after    9 cycles
 SCF Done:  E(UM062X) =  -77.9375627429     A.U. after    9 cycles
 SCF Done:  E(UM062X) =  -77.9375742855     A.U. after    7 cycles
 Optimization completed.
    -- Stationary point found.

                          Input orientation:
 ---------------------------------------------------------------------
 Center     Atomic      Atomic             Coordinates (Angstroms)
 Number     Number       Type             X           Y           Z
 ---------------------------------------------------------------------
      1          6           0       -0.501893    0.000000    0.000000
      2          6           0        0.501893    0.000000    0.000000
      3          1           0       -1.278891   -0.825539    0.000000
      4          1           0       -1.270572    0.835652   -0.000000
      5          1           0        1.278891    0.825539    0.000000
      6          1           0        1.270572   -0.835652   -0.000000
 ---------------------------------------------------------------------

 Alpha  occ. eigenvalues --  -10.81453 -10.80167  -1.24205  -0.96953  -0.87438
 Alpha  occ. eigenvalues --   -0.86891  -0.71290  -0.65560
 Alpha virt. eigenvalues --   -0.16959  -0.16474  -0.15184  -0.13775  -0.10608
 Alpha virt. eigenvalues --   -0.08836  -0.07466  -0.06695  -0.02640  -0.02396
 Alpha virt. eigenvalues --   -0.00102   0.02598   0.13494   0.17675   0.19400

  Beta  occ. eigenvalues --  -10.81471 -10.80166  -1.23194  -0.92172  -0.84405
  Beta  occ. eigenvalues --   -0.81878  -0.71001
  Beta virt. eigenvalues --   -0.44785  -0.16253  -0.15758  -0.15063  -0.13518
  Beta virt. eigenvalues --   -0.10414  -0.08724  -0.05119  -0.04729  -0.02390
  Beta virt. eigenvalues --   -0.01577   0.00336   0.03382   0.13560   0.17507

 Mulliken charges and spin densities:
               1          2
     1  C   -0.153287   0.108464
     2  C   -0.153287   0.108464
     3  H    0.326534   0.193751
     4  H    0.326753   0.197785
     5  H    0.326534   0.193751
     6  H    0.326753   0.197785
 Sum of Mulliken charges =   1.00000   1.00000

 Dipole moment (field-independent basis, Debye):
    X=             -0.0000    Y=              0.0000    Z=             -0.0000  Tot=              0.0000
 Quadrupole moment (field-independent basis, Debye-Ang):
   XX=             -2.4680   YY=             -7.4597   ZZ=            -12.4693
   XY=             -0.0247   XZ=              0.0000   YZ=              0.0000

 Normal termination of Gaussian 16 at Tue Nov 19 10:45:51 2024.
