 Gaussian 16, Revision A.03,
 Gaussian 16:  ES64L-G16RevA.03 25-Dec-2016

 ---------------------------------------------------
 #p UM062X/6-311+G** force int=superfine pop=saveNBO
 ---------------------------------------------------

 -------------------
 Title Card Required
 -------------------
 Symbolic Z-matrix:
 Charge =  0 Multiplicity = 1

                         Standard orientation:
 ---------------------------------------------------------------------
 Center     Atomic      Atomic             Coordinates (Angstroms)
 Number     Number       Type             X           Y           Z
 ---------------------------------------------------------------------
      1          8           0        0.000000    0.000000    0.818562
      2          8           0        0.000000    0.000000   -0.818562
 ---------------------------------------------------------------------

 SCF Done:  E(UM062X) =  -150.109176469     A.U. after    9 cycles

 Unable to determine electronic state:  partially filled degenerate orbitals.
 Alpha  occ. eigenvalues --  -19.83123 -19.83105  -1.21130  -1.03053  -0.55228
 Alpha  occ. eigenvalues --   -0.53695  -0.48886  -0.44158
 Alpha virt. eigenvalues --   -0.23050  -0.08593   0.10463   0.13717   0.15134
 Alpha virt. eigenvalues --    0.15572   0.20999   0.21090   0.21360   0.33859
 Alpha virt. eigenvalues --    0.96331   0.97121   0.99566   1.06662   1.08030

  Beta  occ. eigenvalues --  -19.83123 -19.83105  -1.21130  -1.03053  -0.55228
  Beta  occ. eigenvalues --   -0.53695  -0.48886  -0.44158
  Beta virt. eigenvalues --   -0.23050  -0.08593   0.10463   0.13717   0.15134
  Beta virt. eigenvalues --    0.15572   0.20999   0.21090   0.21360   0.33859
  Beta virt. eigenvalues --    0.96331   0.97121   0.99566   1.06662   1.08030

 Mulliken charges and spin densities:
               1          2
     1  O   -0.000000   0.000000
     2  O   -0.000000   0.000000
 Sum of Mulliken charges =  -0.00000   0.00000

 Dipole moment (field-independent basis, Debye):
    X=             -0.0000    Y=             -0.0000    Z=             -0.0000  Tot=              0.0000
 Quadrupole moment (field-independent basis, Debye-Ang):
   XX=             -9.8949   YY=            -11.6265   ZZ=            -10.0533
   XY=              0.0000   XZ=              0.0000   YZ=              0.0000

 Summary of Natural Population Analysis:

                                       Natural Population
                Natural  -----------------------------------------------
    Atom  No    Charge         Core      Valence    Rydberg      Total
 -----------------------------------------------------------------------
      O    1    0.00000      1.00000     2.99679    0.00321     4.00000
      O    2   -0.00000      1.00000     2.99679    0.00321     4.00000
 =======================================================================
   * Total *   -0.00000      1.99999     5.99358    0.00642     8.00000

 Normal termination of Gaussian 16 at Mon Apr 21 19:53:50 2025.
