 Gaussian 16, Revision A.03,
 Gaussian 16:  ES64L-G16RevA.03 25-Dec-2016

 --------------------------------------------
 #p opt UM062X/6-311+G** nosymm int=superfine
 --------------------------------------------

 -------------------
 Title Card Required
 -------------------
 Symbolic Z-matrix:
 Charge =  0 Multiplicity = 1

 SCF Done:  E(UM062X) =  -81.6942374312     A.U. after   21 cycles
 SCF Done:  E(UM062X) =  -81.7102202421     A.U. after   16 cycles
 SCF Done:  E(UM062X) =  -81.7168943208     A.U. after   15 cycles
 SCF Done:  E(UM062X) =  -81.7187858517     A.U. after   16 cycles
 SCF Done:  E(UM062X) =  -81.7222807219     A.U. after   14 cycles
 SCF Done:  E(UM062X) =  -81.7240119709     A.U. after   14 cycles
 SCF Done:  E(UM062X) =  -81.7242212669     A.U. after   14 cycles
 SCF Done:  E(UM062X) =  -81.7244514283     A.U. after   14 cycles
 SCF Done:  E(UM062X) =  -81.7246034275     A.U. after   14 cycles
 SCF Done:  E(UM062X) =  -81.7246553713     A.U. after   13 cycles
 SCF Done:  E(UM062X) =  -81.7246675429     A.U. after   12 cycles
 SCF Done:  E(UM062X) =  -81.7246678849     A.U. after   12 cycles
 Optimization completed.
    -- Stationary point found.

                          Input orientation:
 ---------------------------------------------------------------------
 Center     Atomic      Atomic             Coordinates (Angstroms)
 Number     Number       Type             X           Y           Z
 ---------------------------------------------------------------------
      1          5           0       -1.970399    0.000000    0.000000
      2          7           0        1.970399    0.000000    0.000000
      3          1           0       -2.292005   -1.126402   -0.026476
      4          1           0        1.947220    0.802371    0.637959
      5          1           0       -2.292007    1.126389   -0.027004
      6          1           0        1.947221   -0.802062    0.638347
 ---------------------------------------------------------------------

 Alpha  occ. eigenvalues --  -14.71572  -7.18608  -0.87314  -0.63359  -0.52099
 Alpha  occ. eigenvalues --   -0.47970  -0.33233  -0.22793
 Alpha virt. eigenvalues --   -0.11853  -0.09217   0.00549   0.02574   0.04160
 Alpha virt. eigenvalues --    0.04986   0.09060   0.11321   0.13544   0.17397
 Alpha virt. eigenvalues --    0.19858   0.20209   0.21733   0.26711   0.32264

  Beta  occ. eigenvalues --  -14.71572  -7.18608  -0.87314  -0.63359  -0.52099
  Beta  occ. eigenvalues --   -0.47970  -0.33233  -0.22793
  Beta virt. eigenvalues --   -0.11853  -0.09217   0.00549   0.02574   0.04160
  Beta virt. eigenvalues --    0.04986   0.09060   0.11321   0.13544   0.17397
  Beta virt. eigenvalues --    0.19858   0.20209   0.21733   0.26711   0.32264

 Mulliken charges and spin densities:
               1          2
     1  B    0.142364   0.000000
     2  N   -0.685890  -0.000000
     3  H    0.070592   0.000000
     4  H    0.201172   0.000000
     5  H    0.070592   0.000000
     6  H    0.201172   0.000000
 Sum of Mulliken charges =  -0.00000  -0.00000

 Dipole moment (field-independent basis, Debye):
    X=             -5.7083    Y=              0.0005    Z=              1.8891  Tot=              6.0127
 Quadrupole moment (field-independent basis, Debye-Ang):
   XX=            -13.8472   YY=            -13.4637   ZZ=            -14.6285
   XY=              0.0010   XZ=              3.9517   YZ=             -0.0003

 Normal termination of Gaussian 16 at Mon Apr 21 17:54:16 2025.
