 Gaussian 16, Revision A.03,
 Gaussian 16:  ES64L-G16RevA.03 25-Dec-2016

 ---------------------------------------------------
 #p UM062X/6-311+G** force int=superfine pop=saveNBO
 ---------------------------------------------------

 -------------------
 Title Card Required
 -------------------
 Symbolic Z-matrix:
 Charge =  0 Multiplicity = 1

                         Standard orientation:
 ---------------------------------------------------------------------
 Center     Atomic      Atomic             Coordinates (Angstroms)
 Number     Number       Type             X           Y           Z
 ---------------------------------------------------------------------
      1         16           0        0.000000    0.000000    1.875200
      2         16           0        0.000000    0.000000   -1.875200
 ---------------------------------------------------------------------

 SCF Done:  E(UM062X) =  -796.048939747     A.U. after    9 cycles

 Unable to determine electronic state:  partially filled degenerate orbitals.
 Alpha  occ. eigenvalues --  -89.98955 -89.98955  -8.34724  -8.34724  -6.26755
 Alpha  occ. eigenvalues --   -6.26755  -6.26735  -6.26735  -6.25906  -6.25906
 Alpha  occ. eigenvalues --   -0.78342  -0.77359  -0.35037  -0.34371  -0.33271
 Alpha  occ. eigenvalues --   -0.31498
 Alpha virt. eigenvalues --   -0.23495  -0.21674   0.03015   0.03791   0.04781
 Alpha virt. eigenvalues --    0.05244   0.07106   0.07400   0.07565   0.12619
 Alpha virt. eigenvalues --    0.32087   0.32197   0.32952   0.35045   0.36105

  Beta  occ. eigenvalues --  -89.98955 -89.98955  -8.34724  -8.34724  -6.26755
  Beta  occ. eigenvalues --   -6.26755  -6.26735  -6.26735  -6.25906  -6.25906
  Beta  occ. eigenvalues --   -0.78342  -0.77359  -0.35037  -0.34371  -0.33271
  Beta  occ. eigenvalues --   -0.31498
  Beta virt. eigenvalues --   -0.23495  -0.21674   0.03015   0.03791   0.04781
  Beta virt. eigenvalues --    0.05244   0.07106   0.07400   0.07565   0.12619
  Beta virt. eigenvalues --    0.32087   0.32197   0.32952   0.35045   0.36105

 Mulliken charges and spin densities:
               1          2
     1  S   -0.000000  -0.000000
     2  S   -0.000000  -0.000000
 Sum of Mulliken charges =  -0.00000  -0.00000

 Dipole moment (field-independent basis, Debye):
    X=             -0.0000    Y=             -0.0000    Z=             -0.0000  Tot=              0.0000
 Quadrupole moment (field-independent basis, Debye-Ang):
   XX=            -30.3908   YY=            -25.4060   ZZ=            -22.5256
   XY=              0.0000   XZ=             -0.0000   YZ=              0.0000

 Summary of Natural Population Analysis:

                                       Natural Population
                Natural  -----------------------------------------------
    Atom  No    Charge         Core      Valence    Rydberg      Total
 -----------------------------------------------------------------------
      S    1   -0.00000      5.00000     2.99923    0.00078     8.00000
      S    2   -0.00000      5.00000     2.99923    0.00078     8.00000
 =======================================================================
   * Total *   -0.00000      9.99999     5.99845    0.00156    16.00000

 Normal termination of Gaussian 16 at Mon Apr 21 20:08:23 2025.
