 Gaussian 16, Revision A.03,
 Gaussian 16:  ES64L-G16RevA.03 25-Dec-2016

 --------------------------------------------
 #p opt UM062X/6-311+G** nosymm int=superfine
 --------------------------------------------

 -------------------
 Title Card Required
 -------------------
 Symbolic Z-matrix:
 Charge = -1 Multiplicity = 2

 SCF Done:  E(UM062X) =  -50.5471640427     A.U. after   15 cycles
 SCF Done:  E(UM062X) =  -50.5530920216     A.U. after   14 cycles
 SCF Done:  E(UM062X) =  -50.5536479557     A.U. after   14 cycles
 Optimization completed.
    -- Stationary point found.

                          Input orientation:
 ---------------------------------------------------------------------
 Center     Atomic      Atomic             Coordinates (Angstroms)
 Number     Number       Type             X           Y           Z
 ---------------------------------------------------------------------
      1          5           0       -1.566404    0.000000    0.000000
      2          5           0        1.566404    0.000000    0.000000
      3          1           0       -2.854813   -0.000972    0.000001
      4          1           0        2.854813    0.000972   -0.000002
 ---------------------------------------------------------------------

 Alpha  occ. eigenvalues --   -6.90171  -6.90170  -0.33449  -0.32946  -0.10847
 Alpha  occ. eigenvalues --   -0.03199   0.02219
 Alpha virt. eigenvalues --    0.12460   0.12478   0.14963   0.15876   0.16478
 Alpha virt. eigenvalues --    0.22069   0.22281   0.22565   0.22707   0.23956
 Alpha virt. eigenvalues --    0.26029   0.34777   0.38194   0.53444   0.58143

  Beta  occ. eigenvalues --   -6.90093  -6.90092  -0.32372  -0.32054  -0.09620
  Beta  occ. eigenvalues --   -0.02219
  Beta virt. eigenvalues --    0.10227   0.11341   0.13110   0.13551   0.13760
  Beta virt. eigenvalues --    0.14262   0.18986   0.20396   0.20553   0.21536
  Beta virt. eigenvalues --    0.22085   0.22832   0.34434   0.38267   0.52998

 Mulliken charges and spin densities:
               1          2
     1  B   -0.396786   0.508110
     2  B   -0.396786   0.508110
     3  H   -0.103214  -0.008110
     4  H   -0.103214  -0.008110
 Sum of Mulliken charges =  -1.00000   1.00000

 Dipole moment (field-independent basis, Debye):
    X=             -0.0000    Y=              0.0000    Z=             -0.0000  Tot=              0.0000
 Quadrupole moment (field-independent basis, Debye-Ang):
   XX=            -38.2725   YY=            -19.1977   ZZ=            -26.7616
   XY=             -0.0017   XZ=              0.0000   YZ=             -0.0113

 Normal termination of Gaussian 16 at Mon Apr 21 17:29:48 2025.
