 Gaussian 16, Revision A.03,
 Gaussian 16:  ES64L-G16RevA.03 25-Dec-2016

 ---------------------------------------
 #p UM062X/6-311+G** force int=superfine
 ---------------------------------------

 -------------------
 Title Card Required
 -------------------
 Symbolic Z-matrix:
 Charge =  0 Multiplicity = 1

                         Standard orientation:
 ---------------------------------------------------------------------
 Center     Atomic      Atomic             Coordinates (Angstroms)
 Number     Number       Type             X           Y           Z
 ---------------------------------------------------------------------
      1          6           0        0.503967    0.000012    0.000001
      2          6           0       -0.503967   -0.000012   -0.000002
      3          1           0       -1.035587   -0.977047   -0.081563
      4          1           0        1.035609   -0.559168    0.805345
      5          1           0       -1.035609    0.559171   -0.805343
      6          1           0       -1.035613    0.417890    0.886909
      7          1           0        1.035587    0.977047    0.081567
      8          1           0        1.035614   -0.417891   -0.886908
 ---------------------------------------------------------------------

 SCF Done:  E(UM062X) =  -79.4230307358     A.U. after   10 cycles

 The electronic state is 1-A.
 Alpha  occ. eigenvalues --  -10.50226 -10.48994  -0.98641  -0.66942  -0.57786
 Alpha  occ. eigenvalues --   -0.57785  -0.54181  -0.32549  -0.32547
 Alpha virt. eigenvalues --    0.01929   0.04123   0.04170   0.04171   0.08552
 Alpha virt. eigenvalues --    0.09043   0.09044   0.14274   0.17365   0.17365
 Alpha virt. eigenvalues --    0.20686   0.20687   0.23796   0.27554   0.40968

  Beta  occ. eigenvalues --  -10.50226 -10.48994  -0.98641  -0.66942  -0.57786
  Beta  occ. eigenvalues --   -0.57785  -0.54181  -0.32549  -0.32547
  Beta virt. eigenvalues --    0.01929   0.04123   0.04170   0.04171   0.08552
  Beta virt. eigenvalues --    0.09043   0.09044   0.14274   0.17365   0.17365
  Beta virt. eigenvalues --    0.20686   0.20687   0.23796   0.27554   0.40968

 Mulliken charges and spin densities:
               1          2
     1  C   -0.409026  -0.000000
     2  C   -0.409027   0.000000
     3  H    0.136344  -0.000000
     4  H    0.136341   0.000000
     5  H    0.136341   0.000000
     6  H    0.136342   0.000000
     7  H    0.136344   0.000000
     8  H    0.136342   0.000000
 Sum of Mulliken charges =  -0.00000  -0.00000

 Dipole moment (field-independent basis, Debye):
    X=              0.0000    Y=             -0.0000    Z=              0.0000  Tot=              0.0000
 Quadrupole moment (field-independent basis, Debye-Ang):
   XX=            -15.7025   YY=            -14.9506   ZZ=            -14.9509
   XY=              0.0000   XZ=             -0.0000   YZ=              0.0000

 Normal termination of Gaussian 16 at Tue Nov 19 12:35:27 2024.
