 Gaussian 16, Revision A.03,
 Gaussian 16:  ES64L-G16RevA.03 25-Dec-2016

 --------------------------------------------
 #p opt UM062X/6-311+G** nosymm int=superfine
 --------------------------------------------

 -------------------
 Title Card Required
 -------------------
 Symbolic Z-matrix:
 Charge =  1 Multiplicity = 2

 SCF Done:  E(UM062X) =  -80.3776201311     A.U. after   12 cycles
 SCF Done:  E(UM062X) =  -80.3776213093     A.U. after    8 cycles
 SCF Done:  E(UM062X) =  -80.3776199683     A.U. after    9 cycles
 SCF Done:  E(UM062X) =  -80.3776212292     A.U. after    9 cycles
 Optimization completed.
    -- Stationary point found.

                          Input orientation:
 ---------------------------------------------------------------------
 Center     Atomic      Atomic             Coordinates (Angstroms)
 Number     Number       Type             X           Y           Z
 ---------------------------------------------------------------------
      1          5           0       -0.677734    0.000000    0.000000
      2          7           0        0.677734    0.000000    0.000000
      3          1           0       -1.847427    0.000040    0.000000
      4          1           0        1.697079    0.000401    0.000000
 ---------------------------------------------------------------------

 Alpha  occ. eigenvalues --  -15.11895  -7.44916  -1.29100  -0.96210  -0.81077
 Alpha  occ. eigenvalues --   -0.74668  -0.70449
 Alpha virt. eigenvalues --   -0.26493  -0.25076  -0.18113  -0.13178  -0.11079
 Alpha virt. eigenvalues --   -0.10678  -0.10221  -0.07154  -0.01856  -0.01460
 Alpha virt. eigenvalues --    0.02510   0.06200   0.14149   0.18107   0.18149

  Beta  occ. eigenvalues --  -15.10986  -7.44939  -1.22533  -0.94012  -0.80845
  Beta  occ. eigenvalues --   -0.67609
  Beta virt. eigenvalues --   -0.44169  -0.24319  -0.21636  -0.18014  -0.12890
  Beta virt. eigenvalues --   -0.11024  -0.10223  -0.10052  -0.06694  -0.01509
  Beta virt. eigenvalues --   -0.01408   0.01224   0.06569   0.14496   0.17074

 Mulliken charges and spin densities:
               1          2
     1  B    0.490324   0.105522
     2  N   -0.076679   0.935332
     3  H    0.183324  -0.011741
     4  H    0.403031  -0.029114
 Sum of Mulliken charges =   1.00000   1.00000

 Dipole moment (field-independent basis, Debye):
    X=             -0.1675    Y=              0.0006    Z=             -0.0000  Tot=              0.1675
 Quadrupole moment (field-independent basis, Debye-Ang):
   XX=             -0.9195   YY=             -9.2836   ZZ=            -10.9892
   XY=              0.0013   XZ=             -0.0000   YZ=              0.0001

 Normal termination of Gaussian 16 at Mon Apr 21 17:55:01 2025.
