 Gaussian 16, Revision A.03,
 Gaussian 16:  ES64L-G16RevA.03 25-Dec-2016

 --------------------------------------------
 #p opt UM062X/6-311+G** nosymm int=superfine
 --------------------------------------------

 -------------------
 Title Card Required
 -------------------
 Symbolic Z-matrix:
 Charge =  0 Multiplicity = 1

 SCF Done:  E(UM062X) =  -80.4091578332     A.U. after   16 cycles
 SCF Done:  E(UM062X) =  -80.4124745374     A.U. after    9 cycles
 SCF Done:  E(UM062X) =  -80.4125216000     A.U. after    9 cycles
 Optimization completed.
    -- Stationary point found.

                          Input orientation:
 ---------------------------------------------------------------------
 Center     Atomic      Atomic             Coordinates (Angstroms)
 Number     Number       Type             X           Y           Z
 ---------------------------------------------------------------------
      1          5           0       -2.017066    0.000000    0.000000
      2          7           0        2.017066    0.000000    0.000000
      3          1           0       -3.249778   -0.000614    0.000000
      4          1           0        3.056199    0.000441    0.000000
 ---------------------------------------------------------------------

 Alpha  occ. eigenvalues --  -14.82622  -7.12080  -0.89100  -0.54287  -0.45621
 Alpha  occ. eigenvalues --   -0.33276  -0.27292
 Alpha virt. eigenvalues --   -0.12140  -0.04009  -0.03967   0.02588   0.04051
 Alpha virt. eigenvalues --    0.06640   0.06737   0.09545   0.13780   0.14804
 Alpha virt. eigenvalues --    0.16760   0.19287   0.25093   0.38483   0.42482

  Beta  occ. eigenvalues --  -14.82622  -7.12080  -0.89100  -0.54287  -0.45621
  Beta  occ. eigenvalues --   -0.33276  -0.27292
  Beta virt. eigenvalues --   -0.12140  -0.04009  -0.03967   0.02588   0.04051
  Beta virt. eigenvalues --    0.06640   0.06737   0.09545   0.13780   0.14804
  Beta virt. eigenvalues --    0.16760   0.19287   0.25093   0.38483   0.42482

 Mulliken charges and spin densities:
               1          2
     1  B   -0.007521   0.000000
     2  N   -0.194559   0.000000
     3  H   -0.009287  -0.000000
     4  H    0.211367   0.000000
 Sum of Mulliken charges =  -0.00000   0.00000

 Dipole moment (field-independent basis, Debye):
    X=              0.1947    Y=             -0.0002    Z=              0.0000  Tot=              0.1947
 Quadrupole moment (field-independent basis, Debye-Ang):
   XX=             -2.8704   YY=            -11.8533   ZZ=            -15.1310
   XY=              0.0014   XZ=              0.0000   YZ=             -0.0000

 Normal termination of Gaussian 16 at Mon Apr 21 18:09:27 2025.
