 Gaussian 16, Revision A.03,
 Gaussian 16:  ES64L-G16RevA.03 25-Dec-2016

 --------------------------------------------
 #p opt UM062X/6-311+G** nosymm int=superfine
 --------------------------------------------

 -------------------
 Title Card Required
 -------------------
 Symbolic Z-matrix:
 Charge =  0 Multiplicity = 1

 SCF Done:  E(UM062X) =  -579.901314726     A.U. after    9 cycles
 SCF Done:  E(UM062X) =  -579.905728879     A.U. after    9 cycles
 SCF Done:  E(UM062X) =  -579.905764209     A.U. after    9 cycles
 Optimization completed.
    -- Stationary point found.

                          Input orientation:
 ---------------------------------------------------------------------
 Center     Atomic      Atomic             Coordinates (Angstroms)
 Number     Number       Type             X           Y           Z
 ---------------------------------------------------------------------
      1         14           0       -1.503705    0.000000    0.000000
      2         14           0        1.503705    0.000000    0.000000
      3          1           0       -3.048458    0.000133   -0.000000
      4          1           0        3.048458    0.000202    0.000000
 ---------------------------------------------------------------------

 Alpha  occ. eigenvalues --  -67.04221 -67.04221  -5.58651  -5.58651  -3.89711
 Alpha  occ. eigenvalues --   -3.89710  -3.89266  -3.89266  -3.89191  -3.89189
 Alpha  occ. eigenvalues --   -0.55714  -0.53361  -0.37554  -0.26866  -0.20380
 Alpha virt. eigenvalues --   -0.10754  -0.08124  -0.06766   0.02137   0.03121
 Alpha virt. eigenvalues --    0.04317   0.04492   0.05509   0.06228   0.07136
 Alpha virt. eigenvalues --    0.09992   0.10584   0.23004   0.29490   0.29863

  Beta  occ. eigenvalues --  -67.04221 -67.04221  -5.58651  -5.58651  -3.89711
  Beta  occ. eigenvalues --   -3.89710  -3.89266  -3.89266  -3.89191  -3.89189
  Beta  occ. eigenvalues --   -0.55714  -0.53361  -0.37554  -0.26866  -0.20380
  Beta virt. eigenvalues --   -0.10754  -0.08124  -0.06766   0.02137   0.03121
  Beta virt. eigenvalues --    0.04317   0.04492   0.05509   0.06228   0.07136
  Beta virt. eigenvalues --    0.09992   0.10584   0.23004   0.29490   0.29863

 Mulliken charges and spin densities:
               1          2
     1  Si   0.143261  -0.000000
     2  Si   0.143261   0.000000
     3  H   -0.143261   0.000000
     4  H   -0.143261  -0.000000
 Sum of Mulliken charges =  -0.00000   0.00000

 Dipole moment (field-independent basis, Debye):
    X=             -0.0000    Y=              0.0001    Z=             -0.0000  Tot=              0.0001
 Quadrupole moment (field-independent basis, Debye-Ang):
   XX=            -33.4447   YY=            -23.9674   ZZ=            -34.8914
   XY=             -0.0001   XZ=             -0.0000   YZ=              0.0016

 Normal termination of Gaussian 16 at Mon Apr 21 21:23:30 2025.
