 Gaussian 16, Revision A.03,
 Gaussian 16:  ES64L-G16RevA.03 25-Dec-2016

 --------------------------------------------
 #p opt UM062X/6-311+G** nosymm int=superfine
 --------------------------------------------

 -------------------
 Title Card Required
 -------------------
 Symbolic Z-matrix:
 Charge =  1 Multiplicity = 2

 SCF Done:  E(UM062X) =  -579.739280833     A.U. after   18 cycles
 SCF Done:  E(UM062X) =  -579.739655445     A.U. after   16 cycles
 SCF Done:  E(UM062X) =  -579.739733398     A.U. after   16 cycles
 SCF Done:  E(UM062X) =  -579.739779948     A.U. after   15 cycles
 SCF Done:  E(UM062X) =  -579.739830172     A.U. after   16 cycles
 SCF Done:  E(UM062X) =  -579.739916968     A.U. after   16 cycles
 SCF Done:  E(UM062X) =  -579.740003153     A.U. after   16 cycles
 SCF Done:  E(UM062X) =  -579.740164757     A.U. after   16 cycles
 SCF Done:  E(UM062X) =  -579.740286012     A.U. after   16 cycles
 SCF Done:  E(UM062X) =  -579.740331878     A.U. after   15 cycles
 SCF Done:  E(UM062X) =  -579.740346396     A.U. after   14 cycles
 SCF Done:  E(UM062X) =  -579.740347611     A.U. after   12 cycles
 Optimization completed.
    -- Stationary point found.

                          Input orientation:
 ---------------------------------------------------------------------
 Center     Atomic      Atomic             Coordinates (Angstroms)
 Number     Number       Type             X           Y           Z
 ---------------------------------------------------------------------
      1         14           0       -1.227975    0.000000    0.000000
      2         14           0        1.227975    0.000000    0.000000
      3          1           0       -0.061608   -1.097837   -0.512196
      4          1           0        1.928297   -1.000654    0.856420
 ---------------------------------------------------------------------

 Alpha  occ. eigenvalues --  -67.30866 -67.26905  -5.84878  -5.81307  -4.15896
 Alpha  occ. eigenvalues --   -4.15593  -4.15501  -4.12653  -4.12342  -4.11884
 Alpha  occ. eigenvalues --   -0.87581  -0.72989  -0.59610  -0.55084  -0.48475
 Alpha virt. eigenvalues --   -0.31017  -0.27508  -0.18193  -0.15700  -0.12789
 Alpha virt. eigenvalues --   -0.09232  -0.08979  -0.08490  -0.08085  -0.06840
 Alpha virt. eigenvalues --   -0.05896  -0.05758  -0.01843   0.07738   0.12277

  Beta  occ. eigenvalues --  -67.30623 -67.26538  -5.84813  -5.81146  -4.15677
  Beta  occ. eigenvalues --   -4.15441  -4.15013  -4.12231  -4.11850  -4.11641
  Beta  occ. eigenvalues --   -0.85559  -0.71258  -0.58661  -0.53279
  Beta virt. eigenvalues --   -0.32716  -0.29387  -0.25497  -0.16765  -0.15606
  Beta virt. eigenvalues --   -0.14139  -0.09138  -0.08930  -0.08065  -0.07974
  Beta virt. eigenvalues --   -0.06612  -0.05526  -0.04977  -0.01788   0.07810

 Mulliken charges and spin densities:
               1          2
     1  Si   0.705003   0.407401
     2  Si   0.427960   0.616037
     3  H   -0.157115  -0.012655
     4  H    0.024152  -0.010783
 Sum of Mulliken charges =   1.00000   1.00000

 Dipole moment (field-independent basis, Debye):
    X=             -0.1226    Y=             -0.4744    Z=              0.2383  Tot=              0.5449
 Quadrupole moment (field-independent basis, Debye-Ang):
   XX=            -12.5596   YY=            -23.5274   ZZ=            -22.4714
   XY=             -0.2283   XZ=              0.1667   YZ=             -0.1910

 Normal termination of Gaussian 16 at Tue Apr 22 01:56:45 2025.
