 Gaussian 16, Revision A.03,
 Gaussian 16:  ES64L-G16RevA.03 25-Dec-2016

 --------------------------------------------
 #p opt UM062X/6-311+G** nosymm int=superfine
 --------------------------------------------

 -------------------
 Title Card Required
 -------------------
 Symbolic Z-matrix:
 Charge =  0 Multiplicity = 1

 SCF Done:  E(UM062X) =  -76.9115490396     A.U. after   14 cycles
 SCF Done:  E(UM062X) =  -76.9127638964     A.U. after   13 cycles
 SCF Done:  E(UM062X) =  -76.9138490527     A.U. after   14 cycles
 SCF Done:  E(UM062X) =  -76.9139207950     A.U. after   13 cycles
 SCF Done:  E(UM062X) =  -76.9139296771     A.U. after   14 cycles
 SCF Done:  E(UM062X) =  -76.9139306371     A.U. after   11 cycles
 SCF Done:  E(UM062X) =  -76.9139306623     A.U. after   12 cycles
 Optimization completed on the basis of negligible forces.
    -- Stationary point found.

                          Input orientation:
 ---------------------------------------------------------------------
 Center     Atomic      Atomic             Coordinates (Angstroms)
 Number     Number       Type             X           Y           Z
 ---------------------------------------------------------------------
      1          6           0       -1.507625    0.000000    0.000000
      2          6           0        1.507625    0.000000    0.000000
      3          1           0       -1.401503   -0.290454    1.073347
      4          1           0        1.401482    0.854848   -0.711110
 ---------------------------------------------------------------------

 Alpha  occ. eigenvalues --  -10.67261 -10.67259  -0.73134  -0.71477  -0.38925
 Alpha  occ. eigenvalues --   -0.38451  -0.25877
 Alpha virt. eigenvalues --   -0.10469  -0.09393  -0.08651   0.03278   0.05084
 Alpha virt. eigenvalues --    0.07321   0.07491   0.09618   0.09997   0.10737
 Alpha virt. eigenvalues --    0.14607   0.18428   0.19209   0.44401   0.45590

  Beta  occ. eigenvalues --  -10.67261 -10.67259  -0.73134  -0.71477  -0.38925
  Beta  occ. eigenvalues --   -0.38451  -0.25877
  Beta virt. eigenvalues --   -0.10469  -0.09393  -0.08651   0.03278   0.05084
  Beta virt. eigenvalues --    0.07321   0.07491   0.09618   0.09997   0.10737
  Beta virt. eigenvalues --    0.14607   0.18428   0.19209   0.44401   0.45590

 Mulliken charges and spin densities:
               1          2
     1  C   -0.144303   0.000000
     2  C   -0.144299  -0.000000
     3  H    0.144302  -0.000000
     4  H    0.144301   0.000000
 Sum of Mulliken charges =   0.00000  -0.00000

 Dipole moment (field-independent basis, Debye):
    X=             -0.0000    Y=              0.8260    Z=              0.5301  Tot=              0.9814
 Quadrupole moment (field-independent basis, Debye-Ang):
   XX=            -16.9598   YY=            -12.7259   ZZ=            -13.6460
   XY=              2.6139   XZ=             -4.0727   YZ=              1.0043

 Normal termination of Gaussian 16 at Tue Dec  3 22:34:51 2024.
