 Gaussian 16, Revision A.03,
 Gaussian 16:  ES64L-G16RevA.03 25-Dec-2016

 --------------------------------------------
 #p opt UM062X/6-311+G** nosymm int=superfine
 --------------------------------------------

 -------------------
 Title Card Required
 -------------------
 Symbolic Z-matrix:
 Charge =  0 Multiplicity = 1

 SCF Done:  E(UM062X) =  -474.359438081     A.U. after   22 cycles
 SCF Done:  E(UM062X) =  -474.359923392     A.U. after   20 cycles
 SCF Done:  E(UM062X) =  -474.361065898     A.U. after   24 cycles
 SCF Done:  E(UM062X) =  -474.361637819     A.U. after   23 cycles
 SCF Done:  E(UM062X) =  -474.361802710     A.U. after   31 cycles
 SCF Done:  E(UM062X) =  -474.361870263     A.U. after   21 cycles
 SCF Done:  E(UM062X) =  -474.361877271     A.U. after   35 cycles
 SCF Done:  E(UM062X) =  -474.361919564     A.U. after   20 cycles
 SCF Done:  E(UM062X) =  -474.361892230     A.U. after   24 cycles
 SCF Done:  E(UM062X) =  -474.361926075     A.U. after   25 cycles
 SCF Done:  E(UM062X) =  -474.361926543     A.U. after   16 cycles
 SCF Done:  E(UM062X) =  -474.361926411     A.U. after   30 cycles
 SCF Done:  E(UM062X) =  -474.361926551     A.U. after   18 cycles
 SCF Done:  E(UM062X) =  -474.361926643     A.U. after   19 cycles
 SCF Done:  E(UM062X) =  -474.361926690     A.U. after   23 cycles
 Optimization completed.
    -- Stationary point found.

                          Input orientation:
 ---------------------------------------------------------------------
 Center     Atomic      Atomic             Coordinates (Angstroms)
 Number     Number       Type             X           Y           Z
 ---------------------------------------------------------------------
      1          8           0       -1.889392    0.000000    0.000000
      2         16           0        1.889392    0.000000    0.000000
      3          1           0       -1.847989   -0.792678   -0.557864
      4          1           0        1.630950    0.688085    1.129195
 ---------------------------------------------------------------------

 Alpha  occ. eigenvalues --  -89.97803 -19.67138  -8.33990  -6.26195  -6.25838
 Alpha  occ. eigenvalues --   -6.25268  -1.08393  -0.83947  -0.52472  -0.49810
 Alpha  occ. eigenvalues --   -0.39703  -0.35862  -0.33235
 Alpha virt. eigenvalues --   -0.23383   0.01531   0.03898   0.04648   0.05339
 Alpha virt. eigenvalues --    0.06668   0.12978   0.19198   0.19755   0.21161
 Alpha virt. eigenvalues --    0.24447   0.30783   0.33937   0.34716   0.38961

  Beta  occ. eigenvalues --  -89.97803 -19.67138  -8.33990  -6.26195  -6.25838
  Beta  occ. eigenvalues --   -6.25268  -1.08393  -0.83947  -0.52472  -0.49810
  Beta  occ. eigenvalues --   -0.39703  -0.35862  -0.33235
  Beta virt. eigenvalues --   -0.23383   0.01531   0.03898   0.04648   0.05339
  Beta virt. eigenvalues --    0.06668   0.12978   0.19198   0.19755   0.21161
  Beta virt. eigenvalues --    0.24447   0.30783   0.33937   0.34716   0.38961

 Mulliken charges and spin densities:
               1          2
     1  O   -0.386461  -0.000000
     2  S    0.033991   0.000000
     3  H    0.245837   0.000000
     4  H    0.106634  -0.000000
 Sum of Mulliken charges =  -0.00000   0.00000

 Dipole moment (field-independent basis, Debye):
    X=              2.4177    Y=             -0.8261    Z=              0.0038  Tot=              2.5550
 Quadrupole moment (field-independent basis, Debye-Ang):
   XX=            -18.7017   YY=            -19.9731   ZZ=            -18.9278
   XY=              3.8827   XZ=              3.7903   YZ=              2.9951

 Normal termination of Gaussian 16 at Thu May 15 13:33:39 2025.
