 Gaussian 16, Revision A.03,
 Gaussian 16:  ES64L-G16RevA.03 25-Dec-2016

 ---------------------------------------
 #p UM062X/6-311+G** force int=superfine
 ---------------------------------------

 -------------------
 Title Card Required
 -------------------
 Symbolic Z-matrix:
 Charge =  0 Multiplicity = 1

                         Standard orientation:
 ---------------------------------------------------------------------
 Center     Atomic      Atomic             Coordinates (Angstroms)
 Number     Number       Type             X           Y           Z
 ---------------------------------------------------------------------
      1          6           0        0.057818   -0.215237   -0.857264
      2          6           0       -0.057818    0.215237    0.857264
      3          1           0        0.194899    1.267685    0.963078
      4          1           0       -0.642204    0.404265   -1.413041
      5          1           0        0.642203   -0.404266    1.413043
      6          1           0       -1.077497    0.031344    1.187627
      7          1           0       -0.194899   -1.267685   -0.963077
      8          1           0        1.077497   -0.031344   -1.187629
 ---------------------------------------------------------------------

 SCF Done:  E(UM062X) =  -79.7774395303     A.U. after    8 cycles

 The electronic state is 1-A.
 Alpha  occ. eigenvalues --  -10.53508 -10.53491  -0.81229  -0.71364  -0.48989
 Alpha  occ. eigenvalues --   -0.48989  -0.42578  -0.42577  -0.37595
 Alpha virt. eigenvalues --    0.02244   0.03711   0.05620   0.05620   0.08636
 Alpha virt. eigenvalues --    0.08636   0.09185   0.13518   0.18395   0.18395
 Alpha virt. eigenvalues --    0.19064   0.21711   0.21712   0.24222   0.27571

  Beta  occ. eigenvalues --  -10.53508 -10.53491  -0.81229  -0.71364  -0.48989
  Beta  occ. eigenvalues --   -0.48989  -0.42578  -0.42577  -0.37595
  Beta virt. eigenvalues --    0.02244   0.03711   0.05620   0.05620   0.08636
  Beta virt. eigenvalues --    0.08636   0.09185   0.13518   0.18395   0.18395
  Beta virt. eigenvalues --    0.19064   0.21711   0.21712   0.24222   0.27571

 Mulliken charges and spin densities:
               1          2
     1  C   -0.486867  -0.000000
     2  C   -0.486867   0.000000
     3  H    0.162289   0.000000
     4  H    0.162289   0.000000
     5  H    0.162289   0.000000
     6  H    0.162289  -0.000000
     7  H    0.162289   0.000000
     8  H    0.162289   0.000000
 Sum of Mulliken charges =  -0.00000  -0.00000

 Dipole moment (field-independent basis, Debye):
    X=             -0.0000    Y=              0.0000    Z=             -0.0000  Tot=              0.0000
 Quadrupole moment (field-independent basis, Debye-Ang):
   XX=            -14.9383   YY=            -14.9754   ZZ=            -15.5698
   XY=              0.0108   XZ=              0.0429   YZ=             -0.1593

 Normal termination of Gaussian 16 at Tue Nov 19 12:47:06 2024.
