 Gaussian 16, Revision A.03,
 Gaussian 16:  ES64L-G16RevA.03 25-Dec-2016

 --------------------------------------------
 #p opt UM062X/6-311+G** nosymm int=superfine
 --------------------------------------------

 -------------------
 Title Card Required
 -------------------
 Symbolic Z-matrix:
 Charge =  0 Multiplicity = 1

 SCF Done:  E(UM062X) =  -114.083859251     A.U. after   18 cycles
 SCF Done:  E(UM062X) =  -114.086747404     A.U. after   10 cycles
 SCF Done:  E(UM062X) =  -114.087642826     A.U. after    9 cycles
 SCF Done:  E(UM062X) =  -114.087646368     A.U. after    9 cycles
 Optimization completed.
    -- Stationary point found.

                          Input orientation:
 ---------------------------------------------------------------------
 Center     Atomic      Atomic             Coordinates (Angstroms)
 Number     Number       Type             X           Y           Z
 ---------------------------------------------------------------------
      1          6           0       -1.948311    0.000000    0.000000
      2          8           0        1.948311    0.000000    0.000000
      3          1           0       -2.638231   -0.866021    0.000001
      4          1           0       -2.638236    0.866017    0.000002
 ---------------------------------------------------------------------

 Alpha  occ. eigenvalues --  -19.75305 -10.62060  -1.05015  -0.76695  -0.48807
 Alpha  occ. eigenvalues --   -0.43917  -0.43913  -0.32446
 Alpha virt. eigenvalues --   -0.17920  -0.09183   0.01845   0.06093   0.08010
 Alpha virt. eigenvalues --    0.08338   0.15953   0.16079   0.18810   0.19065
 Alpha virt. eigenvalues --    0.20956   0.24683   0.43897   0.47808   0.58045

  Beta  occ. eigenvalues --  -19.75305 -10.62060  -1.05015  -0.76695  -0.48807
  Beta  occ. eigenvalues --   -0.43917  -0.43913  -0.32446
  Beta virt. eigenvalues --   -0.17920  -0.09183   0.01845   0.06093   0.08010
  Beta virt. eigenvalues --    0.08338   0.15953   0.16079   0.18810   0.19065
  Beta virt. eigenvalues --    0.20956   0.24683   0.43897   0.47808   0.58045

 Mulliken charges and spin densities:
               1          2
     1  C   -0.265933   0.000000
     2  O   -0.009099   0.000000
     3  H    0.137516  -0.000000
     4  H    0.137516   0.000000
 Sum of Mulliken charges =  -0.00000   0.00000

 Dipole moment (field-independent basis, Debye):
    X=             -2.4747    Y=             -0.0000    Z=              0.0000  Tot=              2.4747
 Quadrupole moment (field-independent basis, Debye-Ang):
   XX=             -4.6718   YY=            -13.1697   ZZ=            -12.4845
   XY=              0.0000   XZ=             -0.0000   YZ=             -0.0000

 Normal termination of Gaussian 16 at Mon Apr 21 19:01:59 2025.
