 Gaussian 16, Revision A.03,
 Gaussian 16:  ES64L-G16RevA.03 25-Dec-2016

 --------------------------------------------
 #p opt UM062X/6-311+G** nosymm int=superfine
 --------------------------------------------

 -------------------
 Title Card Required
 -------------------
 Symbolic Z-matrix:
 Charge =  1 Multiplicity = 2

 SCF Done:  E(UM062X) =  -79.3637023128     A.U. after    9 cycles
 SCF Done:  E(UM062X) =  -79.3690219401     A.U. after    9 cycles
 SCF Done:  E(UM062X) =  -79.3691660563     A.U. after    8 cycles
 Optimization completed.
    -- Stationary point found.

                          Input orientation:
 ---------------------------------------------------------------------
 Center     Atomic      Atomic             Coordinates (Angstroms)
 Number     Number       Type             X           Y           Z
 ---------------------------------------------------------------------
      1          6           0       -0.998670    0.000000    0.000000
      2          6           0        0.998670    0.000000    0.000000
      3          1           0        1.138238   -0.931937    0.539318
      4          1           0       -1.137622   -0.933078   -0.537522
      5          1           0        1.137812    0.933118    0.537404
      6          1           0        1.137669   -0.001083   -1.076823
      7          1           0       -1.138248    0.931973   -0.539255
      8          1           0       -1.137846    0.000967    1.076800
 ---------------------------------------------------------------------

 Alpha  occ. eigenvalues --  -10.86096 -10.86084  -1.11079  -1.01351  -0.78990
 Alpha  occ. eigenvalues --   -0.78988  -0.73581  -0.73580  -0.63721
 Alpha virt. eigenvalues --   -0.23065  -0.16565  -0.11234  -0.11234  -0.09821
 Alpha virt. eigenvalues --   -0.07337  -0.06444  -0.06443  -0.05551  -0.05550
 Alpha virt. eigenvalues --   -0.01842   0.01561   0.01565   0.04219   0.07413

  Beta  occ. eigenvalues --  -10.85876 -10.85876  -1.07517  -0.98339  -0.77980
  Beta  occ. eigenvalues --   -0.77978  -0.72767  -0.72766
  Beta virt. eigenvalues --   -0.40038  -0.17022  -0.16148  -0.11159  -0.11159
  Beta virt. eigenvalues --   -0.07912  -0.07514  -0.06651  -0.06650  -0.05124
  Beta virt. eigenvalues --   -0.05122  -0.00888   0.02235   0.02238   0.04741

 Mulliken charges and spin densities:
               1          2
     1  C   -0.319828   0.545833
     2  C   -0.319828   0.545833
     3  H    0.273285  -0.015301
     4  H    0.273268  -0.015260
     5  H    0.273276  -0.015264
     6  H    0.273267  -0.015268
     7  H    0.273285  -0.015301
     8  H    0.273275  -0.015271
 Sum of Mulliken charges =   1.00000   1.00000

 Dipole moment (field-independent basis, Debye):
    X=              0.0000    Y=             -0.0000    Z=             -0.0000  Tot=              0.0000
 Quadrupole moment (field-independent basis, Debye-Ang):
   XX=             -6.5204   YY=            -10.7526   ZZ=            -10.7526
   XY=             -0.0005   XZ=              0.0003   YZ=              0.0001

 Normal termination of Gaussian 16 at Wed Nov 13 13:27:54 2024.
