 Gaussian 16, Revision A.03,
 Gaussian 16:  ES64L-G16RevA.03 25-Dec-2016

 --------------------------------------------
 #p opt UM062X/6-311+G** nosymm int=superfine
 --------------------------------------------

 -------------------
 Title Card Required
 -------------------
 Symbolic Z-matrix:
 Charge =  0 Multiplicity = 1

 SCF Done:  E(UM062X) =  -114.082684726     A.U. after   18 cycles
 SCF Done:  E(UM062X) =  -114.085755318     A.U. after   10 cycles
 SCF Done:  E(UM062X) =  -114.086694190     A.U. after    9 cycles
 SCF Done:  E(UM062X) =  -114.086697491     A.U. after    9 cycles
 Optimization completed.
    -- Stationary point found.

                          Input orientation:
 ---------------------------------------------------------------------
 Center     Atomic      Atomic             Coordinates (Angstroms)
 Number     Number       Type             X           Y           Z
 ---------------------------------------------------------------------
      1          6           0       -2.048311    0.000000    0.000000
      2          8           0        2.048311    0.000000    0.000000
      3          1           0       -2.741148   -0.864361    0.000001
      4          1           0       -2.741153    0.864357    0.000001
 ---------------------------------------------------------------------

 Alpha  occ. eigenvalues --  -19.75743 -10.61754  -1.05427  -0.76476  -0.48511
 Alpha  occ. eigenvalues --   -0.44328  -0.44325  -0.32243
 Alpha virt. eigenvalues --   -0.18303  -0.08982   0.01909   0.06127   0.08056
 Alpha virt. eigenvalues --    0.08282   0.15687   0.16037   0.18760   0.18958
 Alpha virt. eigenvalues --    0.20477   0.24087   0.44005   0.48013   0.58225

  Beta  occ. eigenvalues --  -19.75743 -10.61754  -1.05427  -0.76476  -0.48511
  Beta  occ. eigenvalues --   -0.44328  -0.44325  -0.32243
  Beta virt. eigenvalues --   -0.18303  -0.08982   0.01909   0.06127   0.08056
  Beta virt. eigenvalues --    0.08282   0.15687   0.16037   0.18760   0.18958
  Beta virt. eigenvalues --    0.20477   0.24087   0.44005   0.48013   0.58225

 Mulliken charges and spin densities:
               1          2
     1  C   -0.264656  -0.000000
     2  O   -0.004962  -0.000000
     3  H    0.134809   0.000000
     4  H    0.134809   0.000000
 Sum of Mulliken charges =  -0.00000  -0.00000

 Dipole moment (field-independent basis, Debye):
    X=             -2.3506    Y=             -0.0000    Z=              0.0000  Tot=              2.3506
 Quadrupole moment (field-independent basis, Debye-Ang):
   XX=             -4.2519   YY=            -13.1942   ZZ=            -12.4775
   XY=              0.0000   XZ=             -0.0000   YZ=             -0.0000

 Normal termination of Gaussian 16 at Mon Apr 21 19:01:13 2025.
