 Gaussian 16, Revision A.03,
 Gaussian 16:  ES64L-G16RevA.03 25-Dec-2016

 --------------------------------------------
 #p opt UM062X/6-311+G** nosymm int=superfine
 --------------------------------------------

 -------------------
 Title Card Required
 -------------------
 Symbolic Z-matrix:
 Charge =  0 Multiplicity = 1

 SCF Done:  E(UM062X) =  -437.439761244     A.U. after   10 cycles
 SCF Done:  E(UM062X) =  -437.439797751     A.U. after    8 cycles
 SCF Done:  E(UM062X) =  -437.439594549     A.U. after   10 cycles
 SCF Done:  E(UM062X) =  -437.439802086     A.U. after    8 cycles
 SCF Done:  E(UM062X) =  -437.439802545     A.U. after    7 cycles
 Optimization completed.
    -- Stationary point found.

                          Input orientation:
 ---------------------------------------------------------------------
 Center     Atomic      Atomic             Coordinates (Angstroms)
 Number     Number       Type             X           Y           Z
 ---------------------------------------------------------------------
      1          6           0       -0.827140    0.000000    0.000000
      2         16           0        0.827140    0.000000    0.000000
      3          1           0       -1.392190   -0.929011    0.000007
      4          1           0       -1.392218    0.928994   -0.000003
 ---------------------------------------------------------------------

 Alpha  occ. eigenvalues --  -89.90218 -10.62180  -8.26705  -6.18773  -6.18701
 Alpha  occ. eigenvalues --   -6.18123  -0.88738  -0.68951  -0.54012  -0.45549
 Alpha  occ. eigenvalues --   -0.37268  -0.29427
 Alpha virt. eigenvalues --   -0.06833   0.01613   0.04693   0.04905   0.05582
 Alpha virt. eigenvalues --    0.08107   0.08833   0.10308   0.14753   0.15939
 Alpha virt. eigenvalues --    0.18498   0.20661   0.35741   0.36563   0.37353

  Beta  occ. eigenvalues --  -89.90218 -10.62180  -8.26705  -6.18773  -6.18701
  Beta  occ. eigenvalues --   -6.18123  -0.88738  -0.68951  -0.54012  -0.45549
  Beta  occ. eigenvalues --   -0.37268  -0.29427
  Beta virt. eigenvalues --   -0.06833   0.01613   0.04693   0.04905   0.05582
  Beta virt. eigenvalues --    0.08107   0.08833   0.10308   0.14753   0.15939
  Beta virt. eigenvalues --    0.18498   0.20661   0.35741   0.36563   0.37353

 Mulliken charges and spin densities:
               1          2
     1  C   -0.348405  -0.000000
     2  S   -0.026892   0.000000
     3  H    0.187648   0.000000
     4  H    0.187649  -0.000000
 Sum of Mulliken charges =   0.00000  -0.00000

 Dipole moment (field-independent basis, Debye):
    X=             -1.8545    Y=             -0.0000    Z=              0.0000  Tot=              1.8545
 Quadrupole moment (field-independent basis, Debye-Ang):
   XX=            -18.1307   YY=            -20.6192   ZZ=            -20.0910
   XY=             -0.0000   XZ=             -0.0000   YZ=              0.0000

 Normal termination of Gaussian 16 at Mon Apr 21 19:39:36 2025.
