 Gaussian 16, Revision A.03,
 Gaussian 16:  ES64L-G16RevA.03 25-Dec-2016

 --------------------------------------------
 #p opt UM062X/6-311+G** nosymm int=superfine
 --------------------------------------------

 -------------------
 Title Card Required
 -------------------
 Symbolic Z-matrix:
 Charge =  0 Multiplicity = 1

 SCF Done:  E(UM062X) =  -83.1193761319     A.U. after   10 cycles
 SCF Done:  E(UM062X) =  -83.1355103370     A.U. after    9 cycles
 SCF Done:  E(UM062X) =  -83.1393201870     A.U. after    8 cycles
 SCF Done:  E(UM062X) =  -83.1393513996     A.U. after    7 cycles
 Optimization completed.
    -- Stationary point found.

                          Input orientation:
 ---------------------------------------------------------------------
 Center     Atomic      Atomic             Coordinates (Angstroms)
 Number     Number       Type             X           Y           Z
 ---------------------------------------------------------------------
      1          5           0       -2.277429    0.000000    0.000000
      2          7           0        2.277429    0.000000    0.000000
      3          1           0        2.641991   -0.945074    0.000002
      4          1           0       -2.284753   -0.593880    1.028597
      5          1           0        2.641890    0.472585   -0.818479
      6          1           0        2.641877    0.472584    0.818485
      7          1           0       -2.284749    1.187729    0.000014
      8          1           0       -2.284770   -0.593859   -1.028609
 ---------------------------------------------------------------------

 Alpha  occ. eigenvalues --  -14.72626  -7.04622  -0.95935  -0.57903  -0.53768
 Alpha  occ. eigenvalues --   -0.53767  -0.40297  -0.40297  -0.33954
 Alpha virt. eigenvalues --   -0.02613   0.02717   0.04708   0.04708   0.04730
 Alpha virt. eigenvalues --    0.08548   0.10511   0.10511   0.16302   0.18090
 Alpha virt. eigenvalues --    0.18090   0.18842   0.18842   0.21334   0.27540

  Beta  occ. eigenvalues --  -14.72626  -7.04622  -0.95935  -0.57903  -0.53768
  Beta  occ. eigenvalues --   -0.53767  -0.40297  -0.40297  -0.33954
  Beta virt. eigenvalues --   -0.02613   0.02717   0.04708   0.04708   0.04730
  Beta virt. eigenvalues --    0.08548   0.10511   0.10511   0.16302   0.18090
  Beta virt. eigenvalues --    0.18090   0.18842   0.18842   0.21334   0.27540

 Mulliken charges and spin densities:
               1          2
     1  B    0.026432  -0.000000
     2  N   -0.731213  -0.000000
     3  H    0.244013   0.000000
     4  H   -0.009090   0.000000
     5  H    0.244012   0.000000
     6  H    0.244012   0.000000
     7  H   -0.009076   0.000000
     8  H   -0.009090   0.000000
 Sum of Mulliken charges =  -0.00000  -0.00000

 Dipole moment (field-independent basis, Debye):
    X=              1.8532    Y=              0.0002    Z=              0.0000  Tot=              1.8532
 Quadrupole moment (field-independent basis, Debye-Ang):
   XX=             -8.7572   YY=            -15.6088   ZZ=            -15.6089
   XY=              0.0001   XZ=             -0.0000   YZ=              0.0000

 Normal termination of Gaussian 16 at Mon Apr 21 17:41:06 2025.
