 Gaussian 16, Revision A.03,
 Gaussian 16:  ES64L-G16RevA.03 25-Dec-2016

 --------------------------------------------
 #p opt UM062X/6-311+G** nosymm int=superfine
 --------------------------------------------

 -------------------
 Title Card Required
 -------------------
 Symbolic Z-matrix:
 Charge =  0 Multiplicity = 1

 SCF Done:  E(UM062X) =  -683.583270905     A.U. after   11 cycles
 SCF Done:  E(UM062X) =  -683.583518102     A.U. after   10 cycles
 SCF Done:  E(UM062X) =  -683.583970089     A.U. after   11 cycles
 SCF Done:  E(UM062X) =  -683.584089333     A.U. after   15 cycles
 SCF Done:  E(UM062X) =  -683.584090483     A.U. after   13 cycles
 Optimization completed.
    -- Stationary point found.

                          Input orientation:
 ---------------------------------------------------------------------
 Center     Atomic      Atomic             Coordinates (Angstroms)
 Number     Number       Type             X           Y           Z
 ---------------------------------------------------------------------
      1         15           0       -2.234490    0.000000    0.000000
      2         15           0        2.234490    0.000000    0.000000
      3          1           0       -2.083617   -1.415807    0.000000
      4          1           0        2.083617    1.415807    0.000000
 ---------------------------------------------------------------------

 Alpha  occ. eigenvalues --  -78.08314 -78.08314  -6.90373  -6.90373  -5.01781
 Alpha  occ. eigenvalues --   -5.01781  -5.01764  -5.01764  -5.01588  -5.01588
 Alpha  occ. eigenvalues --   -0.68591  -0.68135  -0.40562  -0.40475  -0.25056
 Alpha  occ. eigenvalues --   -0.23852
 Alpha virt. eigenvalues --   -0.17262  -0.15950   0.01889   0.03039   0.03715
 Alpha virt. eigenvalues --    0.04454   0.05555   0.06016   0.06393   0.07459
 Alpha virt. eigenvalues --    0.08260   0.11406   0.28604   0.28955   0.30603

  Beta  occ. eigenvalues --  -78.08314 -78.08314  -6.90373  -6.90373  -5.01781
  Beta  occ. eigenvalues --   -5.01781  -5.01764  -5.01764  -5.01588  -5.01588
  Beta  occ. eigenvalues --   -0.68591  -0.68135  -0.40562  -0.40475  -0.25056
  Beta  occ. eigenvalues --   -0.23852
  Beta virt. eigenvalues --   -0.17262  -0.15950   0.01889   0.03039   0.03715
  Beta virt. eigenvalues --    0.04454   0.05555   0.06016   0.06393   0.07459
  Beta virt. eigenvalues --    0.08260   0.11406   0.28604   0.28955   0.30603

 Mulliken charges and spin densities:
               1          2
     1  P    0.011519   0.000000
     2  P    0.011519  -0.000000
     3  H   -0.011519  -0.000000
     4  H   -0.011519   0.000000
 Sum of Mulliken charges =  -0.00000  -0.00000

 Dipole moment (field-independent basis, Debye):
    X=             -0.0000    Y=              0.0000    Z=              0.0000  Tot=              0.0000
 Quadrupole moment (field-independent basis, Debye-Ang):
   XX=            -27.1095   YY=            -28.5106   ZZ=            -30.7723
   XY=              3.3978   XZ=              0.0000   YZ=              0.0000

 Normal termination of Gaussian 16 at Mon Apr 21 21:14:32 2025.
