 Gaussian 16, Revision A.03,
 Gaussian 16:  ES64L-G16RevA.03 25-Dec-2016

 --------------------------------------------
 #p opt UM062X/6-311+G** nosymm int=superfine
 --------------------------------------------

 -------------------
 Title Card Required
 -------------------
 Symbolic Z-matrix:
 Charge =  0 Multiplicity = 1

 SCF Done:  E(UM062X) =  -83.1206298894     A.U. after   10 cycles
 SCF Done:  E(UM062X) =  -83.1365203684     A.U. after    9 cycles
 SCF Done:  E(UM062X) =  -83.1401557260     A.U. after    9 cycles
 SCF Done:  E(UM062X) =  -83.1401850694     A.U. after    7 cycles
 Optimization completed.
    -- Stationary point found.

                          Input orientation:
 ---------------------------------------------------------------------
 Center     Atomic      Atomic             Coordinates (Angstroms)
 Number     Number       Type             X           Y           Z
 ---------------------------------------------------------------------
      1          5           0       -2.052429    0.000000    0.000000
      2          7           0        2.052429    0.000000    0.000000
      3          1           0        2.416991   -0.945096    0.000002
      4          1           0       -2.062548   -0.593897    1.028629
      5          1           0        2.416895    0.472594   -0.818497
      6          1           0        2.416882    0.472593    0.818503
      7          1           0       -2.062576    1.187765    0.000013
      8          1           0       -2.062565   -0.593877   -1.028640
 ---------------------------------------------------------------------

 Alpha  occ. eigenvalues --  -14.72767  -7.04388  -0.96058  -0.57640  -0.53887
 Alpha  occ. eigenvalues --   -0.53886  -0.40050  -0.40050  -0.34121
 Alpha virt. eigenvalues --   -0.02266   0.02655   0.04757   0.04757   0.04961
 Alpha virt. eigenvalues --    0.08539   0.10645   0.10645   0.17030   0.18014
 Alpha virt. eigenvalues --    0.18014   0.19031   0.19031   0.22193   0.27293

  Beta  occ. eigenvalues --  -14.72767  -7.04388  -0.96058  -0.57640  -0.53887
  Beta  occ. eigenvalues --   -0.53886  -0.40050  -0.40050  -0.34121
  Beta virt. eigenvalues --   -0.02266   0.02655   0.04757   0.04757   0.04961
  Beta virt. eigenvalues --    0.08539   0.10645   0.10645   0.17030   0.18014
  Beta virt. eigenvalues --    0.18014   0.19031   0.19031   0.22193   0.27293

 Mulliken charges and spin densities:
               1          2
     1  B    0.021754  -0.000000
     2  N   -0.730202   0.000000
     3  H    0.244585   0.000000
     4  H   -0.008438   0.000000
     5  H    0.244586  -0.000000
     6  H    0.244586  -0.000000
     7  H   -0.008433   0.000000
     8  H   -0.008438   0.000000
 Sum of Mulliken charges =  -0.00000  -0.00000

 Dipole moment (field-independent basis, Debye):
    X=              1.9052    Y=              0.0001    Z=              0.0000  Tot=              1.9052
 Quadrupole moment (field-independent basis, Debye-Ang):
   XX=             -9.5910   YY=            -15.6299   ZZ=            -15.6299
   XY=              0.0001   XZ=             -0.0000   YZ=              0.0000

 Normal termination of Gaussian 16 at Mon Apr 21 17:40:24 2025.
