 Gaussian 16, Revision A.03,
 Gaussian 16:  ES64L-G16RevA.03 25-Dec-2016

 --------------------------------------------
 #p opt UM062X/6-311+G** nosymm int=superfine
 --------------------------------------------

 -------------------
 Title Card Required
 -------------------
 Symbolic Z-matrix:
 Charge =  0 Multiplicity = 1

 SCF Done:  E(UM062X) =  -683.625992381     A.U. after   11 cycles
 SCF Done:  E(UM062X) =  -683.626655248     A.U. after   10 cycles
 SCF Done:  E(UM062X) =  -683.627173335     A.U. after   12 cycles
 SCF Done:  E(UM062X) =  -683.627175433     A.U. after    9 cycles
 Optimization completed.
    -- Stationary point found.

                          Input orientation:
 ---------------------------------------------------------------------
 Center     Atomic      Atomic             Coordinates (Angstroms)
 Number     Number       Type             X           Y           Z
 ---------------------------------------------------------------------
      1         15           0       -1.884490    0.000000    0.000000
      2         15           0        1.884490    0.000000    0.000000
      3          1           0       -1.778786   -1.419404   -0.000000
      4          1           0        1.778786    1.419404   -0.000000
 ---------------------------------------------------------------------

 Alpha  occ. eigenvalues --  -78.08539 -78.08539  -6.90530  -6.90529  -5.01940
 Alpha  occ. eigenvalues --   -5.01940  -5.01930  -5.01930  -5.01741  -5.01741
 Alpha  occ. eigenvalues --   -0.68895  -0.67783  -0.40608  -0.40319  -0.26970
 Alpha  occ. eigenvalues --   -0.24654
 Alpha virt. eigenvalues --   -0.16338  -0.13824   0.01981   0.03051   0.03722
 Alpha virt. eigenvalues --    0.04605   0.05457   0.05847   0.06503   0.07902
 Alpha virt. eigenvalues --    0.08650   0.11861   0.27871   0.30160   0.30808

  Beta  occ. eigenvalues --  -78.08539 -78.08539  -6.90530  -6.90529  -5.01940
  Beta  occ. eigenvalues --   -5.01940  -5.01930  -5.01930  -5.01741  -5.01741
  Beta  occ. eigenvalues --   -0.68895  -0.67783  -0.40608  -0.40319  -0.26970
  Beta  occ. eigenvalues --   -0.24654
  Beta virt. eigenvalues --   -0.16338  -0.13824   0.01981   0.03051   0.03722
  Beta virt. eigenvalues --    0.04605   0.05457   0.05847   0.06503   0.07902
  Beta virt. eigenvalues --    0.08650   0.11861   0.27871   0.30160   0.30808

 Mulliken charges and spin densities:
               1          2
     1  P    0.006955   0.000001
     2  P    0.006955  -0.000001
     3  H   -0.006955  -0.000000
     4  H   -0.006955   0.000000
 Sum of Mulliken charges =  -0.00000   0.00000

 Dipole moment (field-independent basis, Debye):
    X=              0.0000    Y=              0.0000    Z=             -0.0000  Tot=              0.0000
 Quadrupole moment (field-independent basis, Debye-Ang):
   XX=            -26.7619   YY=            -28.4458   ZZ=            -30.8570
   XY=              3.0694   XZ=              0.0000   YZ=             -0.0000

 Normal termination of Gaussian 16 at Mon Apr 21 21:12:37 2025.
