 Gaussian 16, Revision A.03,
 Gaussian 16:  ES64L-G16RevA.03 25-Dec-2016

 ---------------------------------------
 #p UM062X/6-311+G** force int=superfine
 ---------------------------------------

 -------------------
 Title Card Required
 -------------------
 Symbolic Z-matrix:
 Charge =  1 Multiplicity = 2

                         Standard orientation:
 ---------------------------------------------------------------------
 Center     Atomic      Atomic             Coordinates (Angstroms)
 Number     Number       Type             X           Y           Z
 ---------------------------------------------------------------------
      1          7           0        0.000000    0.000000    1.780391
      2          7           0        0.000000    0.000000   -1.780391
 ---------------------------------------------------------------------

 SCF Done:  E(UM062X) =  -108.339571544     A.U. after   11 cycles

 Unable to determine electronic state:  partially filled degenerate orbitals.
 Alpha  occ. eigenvalues --  -15.30949 -15.30946  -1.19612  -1.19020  -0.65342
 Alpha  occ. eigenvalues --   -0.63659  -0.62715
 Alpha virt. eigenvalues --   -0.57268  -0.54623  -0.53868  -0.12929  -0.08092
 Alpha virt. eigenvalues --   -0.07862  -0.07703  -0.04133  -0.02907  -0.02721
 Alpha virt. eigenvalues --    0.03699   0.51470   0.52526   0.52681   0.52709

  Beta  occ. eigenvalues --  -15.30459 -15.30457  -1.15872  -1.15357  -0.61910
  Beta  occ. eigenvalues --   -0.60938
  Beta virt. eigenvalues --   -0.52828  -0.51994  -0.43784  -0.43436  -0.13810
  Beta virt. eigenvalues --   -0.08881  -0.08086  -0.07750  -0.04374  -0.03226
  Beta virt. eigenvalues --   -0.02945   0.02517   0.52474   0.52759   0.52834

 Mulliken charges and spin densities:
               1          2
     1  N    0.500000   0.500000
     2  N    0.500000   0.500000
 Sum of Mulliken charges =   1.00000   1.00000

 Dipole moment (field-independent basis, Debye):
    X=              0.0000    Y=              0.0000    Z=             -0.0000  Tot=              0.0000
 Quadrupole moment (field-independent basis, Debye-Ang):
   XX=            -10.0085   YY=             -8.5654   ZZ=              6.6741
   XY=             -0.0000   XZ=             -0.0000   YZ=             -0.0000

 Optimization completed.
    -- Stationary point found.
 Normal termination of Gaussian 16 at Wed Feb 26 14:02:00 2025.
