 Gaussian 16, Revision A.03,
 Gaussian 16:  ES64L-G16RevA.03 25-Dec-2016

 --------------------------------------------
 #p opt UM062X/6-311+G** nosymm int=superfine
 --------------------------------------------

 -------------------
 Title Card Required
 -------------------
 Symbolic Z-matrix:
 Charge =  0 Multiplicity = 1

 SCF Done:  E(UM062X) =  -111.616577322     A.U. after   16 cycles
 SCF Done:  E(UM062X) =  -111.621642216     A.U. after   16 cycles
 SCF Done:  E(UM062X) =  -111.625122522     A.U. after   14 cycles
 SCF Done:  E(UM062X) =  -111.627396082     A.U. after   15 cycles
 SCF Done:  E(UM062X) =  -111.629411154     A.U. after   15 cycles
 SCF Done:  E(UM062X) =  -111.630149580     A.U. after   17 cycles
 SCF Done:  E(UM062X) =  -111.630513343     A.U. after   15 cycles
 SCF Done:  E(UM062X) =  -111.630891842     A.U. after   16 cycles
 SCF Done:  E(UM062X) =  -111.631143851     A.U. after   18 cycles
 SCF Done:  E(UM062X) =  -111.631217355     A.U. after   13 cycles
 SCF Done:  E(UM062X) =  -111.631240725     A.U. after   13 cycles
 SCF Done:  E(UM062X) =  -111.631287895     A.U. after   15 cycles
 SCF Done:  E(UM062X) =  -111.631316076     A.U. after   13 cycles
 SCF Done:  E(UM062X) =  -111.631332990     A.U. after   16 cycles
 SCF Done:  E(UM062X) =  -111.631333894     A.U. after   12 cycles
 SCF Done:  E(UM062X) =  -111.631333941     A.U. after   11 cycles
 Optimization completed.
    -- Stationary point found.

                          Input orientation:
 ---------------------------------------------------------------------
 Center     Atomic      Atomic             Coordinates (Angstroms)
 Number     Number       Type             X           Y           Z
 ---------------------------------------------------------------------
      1          7           0       -1.861540    0.000000    0.000000
      2          7           0        1.861540    0.000000    0.000000
      3          1           0       -1.745130   -0.811725   -0.619503
      4          1           0        1.745226    0.403804   -0.937894
      5          1           0       -1.745179   -0.403982    0.937813
      6          1           0        1.745505    0.811901    0.619340
 ---------------------------------------------------------------------

 Alpha  occ. eigenvalues --  -14.80537 -14.80536  -0.95216  -0.94920  -0.55333
 Alpha  occ. eigenvalues --   -0.55169  -0.40812  -0.40566  -0.28482
 Alpha virt. eigenvalues --   -0.18532   0.04244   0.06059   0.08748   0.11521
 Alpha virt. eigenvalues --    0.12384   0.13471   0.15555   0.16315   0.18054
 Alpha virt. eigenvalues --    0.18880   0.24090   0.28296   0.51236   0.51541

  Beta  occ. eigenvalues --  -14.80537 -14.80536  -0.95216  -0.94920  -0.55333
  Beta  occ. eigenvalues --   -0.55169  -0.40812  -0.40566  -0.28482
  Beta virt. eigenvalues --   -0.18532   0.04244   0.06059   0.08748   0.11521
  Beta virt. eigenvalues --    0.12384   0.13471   0.15555   0.16315   0.18054
  Beta virt. eigenvalues --    0.18880   0.24090   0.28296   0.51236   0.51541

 Mulliken charges and spin densities:
               1          2
     1  N   -0.483303  -0.000000
     2  N   -0.483378   0.000000
     3  H    0.241665   0.000000
     4  H    0.241672  -0.000000
     5  H    0.241670   0.000000
     6  H    0.241674  -0.000000
 Sum of Mulliken charges =  -0.00000   0.00000

 Dipole moment (field-independent basis, Debye):
    X=              0.0005    Y=             -0.0001    Z=             -0.0004  Tot=              0.0006
 Quadrupole moment (field-independent basis, Debye-Ang):
   XX=            -16.8027   YY=            -14.3649   ZZ=            -11.5302
   XY=              7.6990   XZ=             -2.0163   YZ=              0.7972

 Normal termination of Gaussian 16 at Thu May 15 15:06:03 2025.
