 Gaussian 16, Revision A.03,
 Gaussian 16:  ES64L-G16RevA.03 25-Dec-2016

 --------------------------------------------
 #p opt UM062X/6-311+G** nosymm int=superfine
 --------------------------------------------

 -------------------
 Title Card Required
 -------------------
 Symbolic Z-matrix:
 Charge =  0 Multiplicity = 2

 SCF Done:  E(UM062X) =  -54.4762936245     A.U. after   12 cycles

 Alpha  occ. eigenvalues --  -14.88652  -0.86970  -0.42998  -0.37415
 Alpha virt. eigenvalues --   -0.15206   0.08889   0.12126   0.12234   0.12792
 Alpha virt. eigenvalues --    0.77261   0.79230   0.80665   0.94489   1.92361
 Alpha virt. eigenvalues --    1.93980   1.96037   1.97167   1.98986   3.73476

  Beta  occ. eigenvalues --  -14.87173  -0.79073  -0.34081
  Beta virt. eigenvalues --   -0.13046  -0.08680   0.07548   0.12368   0.13201
  Beta virt. eigenvalues --    0.13662   0.79453   0.81146   0.81244   0.96621
  Beta virt. eigenvalues --    1.97435   1.98301   1.98753   2.01799   2.03033

 Mulliken charges and spin densities:
               1          2
     1  N   -0.000000   1.000000
 Sum of Mulliken charges =  -0.00000   1.00000

 Dipole moment (field-independent basis, Debye):
    X=             -0.0000    Y=              0.0000    Z=              0.0000  Tot=              0.0000
 Quadrupole moment (field-independent basis, Debye-Ang):
   XX=             -4.3149   YY=             -7.3118   ZZ=             -5.8270
   XY=             -0.0833   XZ=             -0.0621   YZ=             -0.4679

 Optimization completed.
    -- Stationary point found.

                          Input orientation:
 ---------------------------------------------------------------------
 Center     Atomic      Atomic             Coordinates (Angstroms)
 Number     Number       Type             X           Y           Z
 ---------------------------------------------------------------------
      1          7           0        0.601540    0.000000    0.000000
 ---------------------------------------------------------------------

 Normal termination of Gaussian 16 at Wed Apr 16 08:42:44 2025.
