 Gaussian 16, Revision A.03,
 Gaussian 16:  ES64L-G16RevA.03 25-Dec-2016

 --------------------------------------------
 #p opt UM062X/6-311+G** nosymm int=superfine
 --------------------------------------------

 -------------------
 Title Card Required
 -------------------
 Symbolic Z-matrix:
 Charge =  0 Multiplicity = 1

 SCF Done:  E(UM062X) =  -381.038695979     A.U. after   13 cycles
 SCF Done:  E(UM062X) =  -381.041042152     A.U. after   12 cycles
 SCF Done:  E(UM062X) =  -381.041326503     A.U. after   12 cycles
 SCF Done:  E(UM062X) =  -381.039311997     A.U. after   13 cycles
 SCF Done:  E(UM062X) =  -381.041397234     A.U. after   12 cycles
 SCF Done:  E(UM062X) =  -381.040994055     A.U. after   15 cycles
 SCF Done:  E(UM062X) =  -381.041433700     A.U. after   15 cycles
 SCF Done:  E(UM062X) =  -381.041435764     A.U. after    9 cycles
 SCF Done:  E(UM062X) =  -381.041436541     A.U. after   11 cycles
 SCF Done:  E(UM062X) =  -381.041436654     A.U. after    9 cycles
 Optimization completed.
    -- Stationary point found.

                          Input orientation:
 ---------------------------------------------------------------------
 Center     Atomic      Atomic             Coordinates (Angstroms)
 Number     Number       Type             X           Y           Z
 ---------------------------------------------------------------------
      1          6           0       -1.230452    0.000000    0.000000
      2         15           0        1.230452    0.000000    0.000000
      3          1           0       -1.754511   -0.949772    0.010632
      4          1           0        1.161167   -1.418904    0.016321
      5          1           0       -1.749275    0.952013   -0.010695
 ---------------------------------------------------------------------

 Alpha  occ. eigenvalues --  -78.06331 -10.62977  -6.88221  -4.99749  -4.99545
 Alpha  occ. eigenvalues --   -4.99480  -0.76631  -0.66385  -0.52124  -0.39359
 Alpha  occ. eigenvalues --   -0.34119  -0.26017
 Alpha virt. eigenvalues --   -0.10462  -0.04078   0.02201   0.04345   0.04802
 Alpha virt. eigenvalues --    0.05658   0.06542   0.07201   0.10169   0.10901
 Alpha virt. eigenvalues --    0.14318   0.18683   0.20656   0.30284   0.31739

  Beta  occ. eigenvalues --  -78.06331 -10.62977  -6.88221  -4.99749  -4.99545
  Beta  occ. eigenvalues --   -4.99480  -0.76631  -0.66385  -0.52124  -0.39359
  Beta  occ. eigenvalues --   -0.34119  -0.26017
  Beta virt. eigenvalues --   -0.10462  -0.04078   0.02201   0.04345   0.04802
  Beta virt. eigenvalues --    0.05658   0.06542   0.07201   0.10169   0.10901
  Beta virt. eigenvalues --    0.14318   0.18683   0.20656   0.30284   0.31739

 Mulliken charges and spin densities:
               1          2
     1  C   -0.447820   0.000001
     2  P    0.089064  -0.000001
     3  H    0.187048  -0.000000
     4  H   -0.015971   0.000000
     5  H    0.187679  -0.000000
 Sum of Mulliken charges =   0.00000  -0.00000

 Dipole moment (field-independent basis, Debye):
    X=             -0.9662    Y=             -0.5928    Z=              0.0067  Tot=              1.1336
 Quadrupole moment (field-independent basis, Debye-Ang):
   XX=            -18.0207   YY=            -20.2790   ZZ=            -24.5787
   XY=             -1.2130   XZ=              0.0139   YZ=             -0.0488

 Normal termination of Gaussian 16 at Mon Apr 21 19:15:11 2025.
