 Gaussian 16, Revision A.03,
 Gaussian 16:  ES64L-G16RevA.03 25-Dec-2016

 --------------------------------------------
 #p opt UM062X/6-311+G** nosymm int=superfine
 --------------------------------------------

 -------------------
 Title Card Required
 -------------------
 Symbolic Z-matrix:
 Charge =  0 Multiplicity = 1

 SCF Done:  E(UM062X) =  -78.1988710378     A.U. after    9 cycles
 SCF Done:  E(UM062X) =  -78.2159377167     A.U. after    9 cycles
 SCF Done:  E(UM062X) =  -78.2316423507     A.U. after    8 cycles
 SCF Done:  E(UM062X) =  -78.2320088993     A.U. after    8 cycles
 SCF Done:  E(UM062X) =  -78.2320104230     A.U. after    7 cycles
 Optimization completed.
    -- Stationary point found.

                          Input orientation:
 ---------------------------------------------------------------------
 Center     Atomic      Atomic             Coordinates (Angstroms)
 Number     Number       Type             X           Y           Z
 ---------------------------------------------------------------------
      1          6           0       -1.860595    0.000000    0.000000
      2          6           0        1.860595    0.000000    0.000000
      3          1           0       -2.568382   -0.857665    0.000000
      4          1           0       -2.568348    0.857694   -0.000000
      5          1           0        2.568382    0.857665   -0.000000
      6          1           0        2.568348   -0.857694   -0.000000
 ---------------------------------------------------------------------

 Alpha  occ. eigenvalues --  -10.59273 -10.59273  -0.74310  -0.74237  -0.45978
 Alpha  occ. eigenvalues --   -0.45912  -0.30932  -0.28506
 Alpha virt. eigenvalues --   -0.07198  -0.06556   0.02537   0.03328   0.06659
 Alpha virt. eigenvalues --    0.08617   0.08782   0.10439   0.12503   0.15449
 Alpha virt. eigenvalues --    0.17572   0.19960   0.20936   0.22443   0.45457

  Beta  occ. eigenvalues --  -10.59273 -10.59273  -0.74310  -0.74237  -0.45978
  Beta  occ. eigenvalues --   -0.45912  -0.30932  -0.28506
  Beta virt. eigenvalues --   -0.07198  -0.06556   0.02537   0.03328   0.06659
  Beta virt. eigenvalues --    0.08617   0.08782   0.10439   0.12503   0.15449
  Beta virt. eigenvalues --    0.17572   0.19960   0.20936   0.22443   0.45457

 Mulliken charges and spin densities:
               1          2
     1  C   -0.237328   0.000000
     2  C   -0.237328   0.000000
     3  H    0.118664  -0.000000
     4  H    0.118664  -0.000000
     5  H    0.118664   0.000000
     6  H    0.118664  -0.000000
 Sum of Mulliken charges =  -0.00000   0.00000

 Dipole moment (field-independent basis, Debye):
    X=             -0.0000    Y=             -0.0000    Z=             -0.0000  Tot=              0.0000
 Quadrupole moment (field-independent basis, Debye-Ang):
   XX=             -4.6660   YY=            -14.7055   ZZ=            -12.9570
   XY=             -0.0001   XZ=             -0.0000   YZ=             -0.0000

 Normal termination of Gaussian 16 at Tue Dec  3 11:16:03 2024.
