 Gaussian 16, Revision A.03,
 Gaussian 16:  ES64L-G16RevA.03 25-Dec-2016

 --------------------------------------------
 #p opt UM062X/6-311+G** nosymm int=superfine
 --------------------------------------------

 -------------------
 Title Card Required
 -------------------
 Symbolic Z-matrix:
 Charge =  0 Multiplicity = 1

 SCF Done:  E(UM062X) =  -437.181102727     A.U. after   17 cycles
 SCF Done:  E(UM062X) =  -437.182120004     A.U. after   14 cycles
 SCF Done:  E(UM062X) =  -437.182479681     A.U. after   14 cycles
 SCF Done:  E(UM062X) =  -437.182478679     A.U. after   11 cycles
 SCF Done:  E(UM062X) =  -437.182479921     A.U. after   17 cycles
 Optimization completed.
    -- Stationary point found.

                          Input orientation:
 ---------------------------------------------------------------------
 Center     Atomic      Atomic             Coordinates (Angstroms)
 Number     Number       Type             X           Y           Z
 ---------------------------------------------------------------------
      1          6           0       -1.602140    0.000000    0.000000
      2         16           0        1.602140    0.000000    0.000000
      3          1           0       -2.249910   -0.889519   -0.000164
      4          1           0       -2.250702    0.888942   -0.000300
 ---------------------------------------------------------------------

 Alpha  occ. eigenvalues --  -89.91866 -10.66536  -8.27858  -6.20569  -6.19116
 Alpha  occ. eigenvalues --   -6.19103  -0.79875  -0.72152  -0.53021  -0.35817
 Alpha  occ. eigenvalues --   -0.29635  -0.29604
 Alpha virt. eigenvalues --   -0.13772  -0.12133   0.00718   0.05236   0.05545
 Alpha virt. eigenvalues --    0.06626   0.08430   0.08922   0.09280   0.14172
 Alpha virt. eigenvalues --    0.16688   0.17134   0.36351   0.37297   0.37343

  Beta  occ. eigenvalues --  -89.91866 -10.66536  -8.27858  -6.20569  -6.19116
  Beta  occ. eigenvalues --   -6.19103  -0.79875  -0.72152  -0.53021  -0.35817
  Beta  occ. eigenvalues --   -0.29635  -0.29604
  Beta virt. eigenvalues --   -0.13772  -0.12133   0.00718   0.05236   0.05545
  Beta virt. eigenvalues --    0.06626   0.08430   0.08922   0.09280   0.14172
  Beta virt. eigenvalues --    0.16688   0.17134   0.36351   0.37297   0.37343

 Mulliken charges and spin densities:
               1          2
     1  C   -0.255931   0.000000
     2  S   -0.082772  -0.000000
     3  H    0.169346   0.000000
     4  H    0.169357  -0.000000
 Sum of Mulliken charges =  -0.00000  -0.00000

 Dipole moment (field-independent basis, Debye):
    X=             -3.9907    Y=             -0.0008    Z=             -0.0006  Tot=              3.9907
 Quadrupole moment (field-independent basis, Debye-Ang):
   XX=            -12.1865   YY=            -22.2567   ZZ=            -22.0180
   XY=             -0.0001   XZ=             -0.0002   YZ=              0.0000

 Normal termination of Gaussian 16 at Mon Apr 21 19:44:50 2025.
