 Gaussian 16, Revision A.03,
 Gaussian 16:  ES64L-G16RevA.03 25-Dec-2016

 --------------------------------------------
 #p opt UM062X/6-311+G** nosymm int=superfine
 --------------------------------------------

 -------------------
 Title Card Required
 -------------------
 Symbolic Z-matrix:
 Charge =  1 Multiplicity = 2

 SCF Done:  E(UM062X) =  -76.7660537415     A.U. after   11 cycles
 SCF Done:  E(UM062X) =  -76.8488849001     A.U. after   11 cycles
 SCF Done:  E(UM062X) =  -76.9473781563     A.U. after   10 cycles
 SCF Done:  E(UM062X) =  -76.9831191714     A.U. after   11 cycles
 SCF Done:  E(UM062X) =  -76.9979916036     A.U. after    9 cycles
 SCF Done:  E(UM062X) =  -77.0049713552     A.U. after    9 cycles
 SCF Done:  E(UM062X) =  -77.0051579126     A.U. after    8 cycles
 SCF Done:  E(UM062X) =  -77.0051584680     A.U. after    7 cycles
 Optimization completed.
    -- Stationary point found.

                          Input orientation:
 ---------------------------------------------------------------------
 Center     Atomic      Atomic             Coordinates (Angstroms)
 Number     Number       Type             X           Y           Z
 ---------------------------------------------------------------------
      1          6           0       -0.381722    0.000000    0.000000
      2          6           0        0.381722    0.000000    0.000000
      3          1           0       -1.241846   -0.747740    0.000000
      4          1           0       -1.239692    0.751329   -0.000000
      5          1           0        1.241846    0.747740    0.000000
      6          1           0        1.239692   -0.751329   -0.000000
 ---------------------------------------------------------------------

 Alpha  occ. eigenvalues --  -10.87918 -10.77360  -1.23234  -0.95913  -0.92368
 Alpha  occ. eigenvalues --   -0.88191  -0.81992  -0.58524
 Alpha virt. eigenvalues --   -0.20555  -0.15735  -0.13958  -0.11888  -0.11756
 Alpha virt. eigenvalues --   -0.09223  -0.07808  -0.06188  -0.01569   0.00079
 Alpha virt. eigenvalues --    0.01136   0.03042   0.17211   0.17371   0.20579

  Beta  occ. eigenvalues --  -10.88021 -10.77422  -1.22497  -0.91292  -0.89264
  Beta  occ. eigenvalues --   -0.85540  -0.81909
  Beta virt. eigenvalues --   -0.38208  -0.18239  -0.15536  -0.13551  -0.11808
  Beta virt. eigenvalues --   -0.11415  -0.09068  -0.04517  -0.02763  -0.01082
  Beta virt. eigenvalues --    0.00947   0.02408   0.04079   0.16223   0.16975

 Mulliken charges and spin densities:
               1          2
     1  C   -0.132234   0.076864
     2  C   -0.132234   0.076864
     3  H    0.316025   0.210824
     4  H    0.316209   0.212312
     5  H    0.316025   0.210824
     6  H    0.316209   0.212312
 Sum of Mulliken charges =   1.00000   1.00000

 Dipole moment (field-independent basis, Debye):
    X=              0.0000    Y=             -0.0000    Z=             -0.0000  Tot=              0.0000
 Quadrupole moment (field-independent basis, Debye-Ang):
   XX=             -2.5471   YY=             -7.7610   ZZ=            -11.2993
   XY=             -0.0098   XZ=             -0.0000   YZ=              0.0000

 Normal termination of Gaussian 16 at Tue Nov 19 10:30:39 2024.
