 Gaussian 16, Revision A.03,
 Gaussian 16:  ES64L-G16RevA.03 25-Dec-2016

 --------------------------------------------
 #p opt UM062X/6-311+G** nosymm int=superfine
 --------------------------------------------

 -------------------
 Title Card Required
 -------------------
 Symbolic Z-matrix:
 Charge =  0 Multiplicity = 1

 SCF Done:  E(UM062X) =  -380.969404749     A.U. after   18 cycles
 SCF Done:  E(UM062X) =  -380.970941380     A.U. after   14 cycles
 SCF Done:  E(UM062X) =  -380.971601901     A.U. after   15 cycles
 SCF Done:  E(UM062X) =  -380.971600261     A.U. after   15 cycles
 SCF Done:  E(UM062X) =  -380.971619120     A.U. after   17 cycles
 SCF Done:  E(UM062X) =  -380.971633995     A.U. after   17 cycles
 SCF Done:  E(UM062X) =  -380.971636042     A.U. after   17 cycles
 SCF Done:  E(UM062X) =  -380.971637461     A.U. after   16 cycles
 SCF Done:  E(UM062X) =  -380.971637792     A.U. after   15 cycles
 Optimization completed.
    -- Stationary point found.

                          Input orientation:
 ---------------------------------------------------------------------
 Center     Atomic      Atomic             Coordinates (Angstroms)
 Number     Number       Type             X           Y           Z
 ---------------------------------------------------------------------
      1          6           0       -1.455452    0.000000    0.000000
      2         15           0        1.455452    0.000000    0.000000
      3          1           0       -2.085142   -0.896455    0.000391
      4          1           0        1.307989   -1.413153    0.000385
      5          1           0       -2.057829    0.914448   -0.000276
 ---------------------------------------------------------------------

 Alpha  occ. eigenvalues --  -78.05035 -10.64564  -6.87070  -4.98891  -4.98308
 Alpha  occ. eigenvalues --   -4.98042  -0.77829  -0.65430  -0.51800  -0.38169
 Alpha  occ. eigenvalues --   -0.34086  -0.24100
 Alpha virt. eigenvalues --   -0.11135  -0.08415   0.01655   0.04208   0.04729
 Alpha virt. eigenvalues --    0.06181   0.06875   0.07131   0.09344   0.11411
 Alpha virt. eigenvalues --    0.13836   0.17990   0.18576   0.30788   0.33426

  Beta  occ. eigenvalues --  -78.05035 -10.64564  -6.87070  -4.98891  -4.98308
  Beta  occ. eigenvalues --   -4.98042  -0.77829  -0.65430  -0.51800  -0.38169
  Beta  occ. eigenvalues --   -0.34086  -0.24100
  Beta virt. eigenvalues --   -0.11135  -0.08415   0.01655   0.04208   0.04729
  Beta virt. eigenvalues --    0.06181   0.06875   0.07131   0.09344   0.11411
  Beta virt. eigenvalues --    0.13836   0.17990   0.18576   0.30788   0.33426

 Mulliken charges and spin densities:
               1          2
     1  C   -0.376599  -0.000000
     2  P    0.056821   0.000000
     3  H    0.172754   0.000000
     4  H   -0.026149  -0.000000
     5  H    0.173173   0.000000
 Sum of Mulliken charges =  -0.00000  -0.00000

 Dipole moment (field-independent basis, Debye):
    X=             -2.2250    Y=             -0.5899    Z=              0.0003  Tot=              2.3019
 Quadrupole moment (field-independent basis, Debye-Ang):
   XX=            -15.2590   YY=            -21.0273   ZZ=            -25.4854
   XY=             -1.3785   XZ=              0.0006   YZ=             -0.0013

 Normal termination of Gaussian 16 at Mon Apr 21 19:15:36 2025.
