 Gaussian 16, Revision A.03,
 Gaussian 16:  ES64L-G16RevA.03 25-Dec-2016

 --------------------------------------------
 #p opt UM062X/6-311+G** nosymm int=superfine
 --------------------------------------------

 -------------------
 Title Card Required
 -------------------
 Symbolic Z-matrix:
 Charge =  0 Multiplicity = 1

 SCF Done:  E(UM062X) =  -115.601257374     A.U. after   11 cycles
 SCF Done:  E(UM062X) =  -115.612747568     A.U. after   10 cycles
 SCF Done:  E(UM062X) =  -115.614611442     A.U. after   10 cycles
 SCF Done:  E(UM062X) =  -115.614621997     A.U. after    9 cycles
 SCF Done:  E(UM062X) =  -115.614624758     A.U. after    8 cycles
 Optimization completed.
    -- Stationary point found.

                          Input orientation:
 ---------------------------------------------------------------------
 Center     Atomic      Atomic             Coordinates (Angstroms)
 Number     Number       Type             X           Y           Z
 ---------------------------------------------------------------------
      1          6           0       -1.032203    0.000000    0.000000
      2          8           0        1.032203    0.000000    0.000000
      3          1           0        1.152690   -0.956769    0.000214
      4          1           0       -1.242262   -0.517165    0.926276
      5          1           0       -1.156515    1.073239   -0.000780
      6          1           0       -1.242327   -0.518504   -0.925514
 ---------------------------------------------------------------------

 Alpha  occ. eigenvalues --  -19.61339 -10.62675  -1.04624  -0.80735  -0.52995
 Alpha  occ. eigenvalues --   -0.52673  -0.47866  -0.37228  -0.35110
 Alpha virt. eigenvalues --   -0.04126   0.01161   0.04757   0.05227   0.07348
 Alpha virt. eigenvalues --    0.15098   0.17302   0.17359   0.20359   0.22994
 Alpha virt. eigenvalues --    0.23403   0.24173   0.33124   0.41157   0.42293

  Beta  occ. eigenvalues --  -19.61339 -10.62675  -1.04624  -0.80735  -0.52995
  Beta  occ. eigenvalues --   -0.52673  -0.47866  -0.37228  -0.35110
  Beta virt. eigenvalues --   -0.04126   0.01161   0.04757   0.05227   0.07348
  Beta virt. eigenvalues --    0.15098   0.17302   0.17359   0.20359   0.22994
  Beta virt. eigenvalues --    0.23403   0.24173   0.33124   0.41157   0.42293

 Mulliken charges and spin densities:
               1          2
     1  C   -0.305128   0.000000
     2  O   -0.495476  -0.000000
     3  H    0.228770   0.000000
     4  H    0.185013  -0.000000
     5  H    0.201828  -0.000000
     6  H    0.184993  -0.000000
 Sum of Mulliken charges =  -0.00000   0.00000

 Dipole moment (field-independent basis, Debye):
    X=             -3.1299    Y=             -1.5326    Z=              0.0003  Tot=              3.4850
 Quadrupole moment (field-independent basis, Debye-Ang):
   XX=            -13.4572   YY=            -11.4315   ZZ=            -13.8128
   XY=             -2.1306   XZ=              0.0005   YZ=             -0.0006

 Normal termination of Gaussian 16 at Mon Apr 21 18:41:23 2025.
