 Gaussian 16, Revision A.03,
 Gaussian 16:  ES64L-G16RevA.03 25-Dec-2016

 --------------------------------------------
 #p opt UM062X/6-311+G** nosymm int=superfine
 --------------------------------------------

 -------------------
 Title Card Required
 -------------------
 Symbolic Z-matrix:
 Charge =  0 Multiplicity = 1

 SCF Done:  E(UM062X) =  -94.3811122167     A.U. after   12 cycles
 SCF Done:  E(UM062X) =  -94.3906164172     A.U. after   12 cycles
 SCF Done:  E(UM062X) =  -94.3914264796     A.U. after   12 cycles
 SCF Done:  E(UM062X) =  -94.3913321709     A.U. after   13 cycles
 SCF Done:  E(UM062X) =  -94.3910127176     A.U. after   15 cycles
 SCF Done:  E(UM062X) =  -94.3908750676     A.U. after   13 cycles
 SCF Done:  E(UM062X) =  -94.3915176102     A.U. after   12 cycles
 SCF Done:  E(UM062X) =  -94.3915749228     A.U. after   13 cycles
 SCF Done:  E(UM062X) =  -94.3913790257     A.U. after   15 cycles
 SCF Done:  E(UM062X) =  -94.3915842267     A.U. after   12 cycles
 Optimization completed.
    -- Stationary point found.

                          Input orientation:
 ---------------------------------------------------------------------
 Center     Atomic      Atomic             Coordinates (Angstroms)
 Number     Number       Type             X           Y           Z
 ---------------------------------------------------------------------
      1          6           0       -1.006637    0.000000    0.000000
      2          7           0        1.006637    0.000000    0.000000
      3          1           0       -1.523397   -0.950713    0.001699
      4          1           0        1.043342   -1.031569    0.001692
      5          1           0       -1.427576    0.994584   -0.001845
 ---------------------------------------------------------------------

 Alpha  occ. eigenvalues --  -14.81671 -10.66165  -0.88829  -0.77081  -0.55362
 Alpha  occ. eigenvalues --   -0.44155  -0.37098  -0.30162
 Alpha virt. eigenvalues --   -0.10521  -0.01209   0.02166   0.04756   0.07002
 Alpha virt. eigenvalues --    0.07866   0.12621   0.15082   0.15850   0.17318
 Alpha virt. eigenvalues --    0.20594   0.22668   0.26845   0.41466   0.43721

  Beta  occ. eigenvalues --  -14.81671 -10.66165  -0.88829  -0.77081  -0.55362
  Beta  occ. eigenvalues --   -0.44155  -0.37098  -0.30162
  Beta virt. eigenvalues --   -0.10521  -0.01209   0.02166   0.04756   0.07002
  Beta virt. eigenvalues --    0.07866   0.12621   0.15082   0.15850   0.17318
  Beta virt. eigenvalues --    0.20594   0.22668   0.26845   0.41466   0.43721

 Mulliken charges and spin densities:
               1          2
     1  C   -0.316300  -0.000000
     2  N   -0.277141   0.000000
     3  H    0.194614   0.000000
     4  H    0.196001  -0.000000
     5  H    0.202825   0.000000
 Sum of Mulliken charges =  -0.00000   0.00000

 Dipole moment (field-independent basis, Debye):
    X=             -2.6718    Y=             -1.4657    Z=              0.0024  Tot=              3.0474
 Quadrupole moment (field-independent basis, Debye-Ang):
   XX=            -12.1059   YY=            -11.4424   ZZ=            -15.6884
   XY=             -1.9425   XZ=              0.0033   YZ=             -0.0074

 Normal termination of Gaussian 16 at Mon Apr 21 18:22:27 2025.
