 Gaussian 16, Revision A.03,
 Gaussian 16:  ES64L-G16RevA.03 25-Dec-2016

 --------------------------------------------
 #p opt UM062X/6-311+G** nosymm int=superfine
 --------------------------------------------

 -------------------
 Title Card Required
 -------------------
 Symbolic Z-matrix:
 Charge =  0 Multiplicity = 1

 SCF Done:  E(UM062X) =  -51.8257434341     A.U. after    9 cycles
 SCF Done:  E(UM062X) =  -51.8304212113     A.U. after    8 cycles
 SCF Done:  E(UM062X) =  -51.8328777223     A.U. after   11 cycles
 SCF Done:  E(UM062X) =  -51.8328793347     A.U. after    9 cycles
 SCF Done:  E(UM062X) =  -51.8328513173     A.U. after    9 cycles
 SCF Done:  E(UM062X) =  -51.8328795346     A.U. after    9 cycles
 Optimization completed.
    -- Stationary point found.

                          Input orientation:
 ---------------------------------------------------------------------
 Center     Atomic      Atomic             Coordinates (Angstroms)
 Number     Number       Type             X           Y           Z
 ---------------------------------------------------------------------
      1          5           0       -1.745607    0.000000    0.000000
      2          5           0        1.745607    0.000000    0.000000
      3          1           0       -2.225068   -1.078198   -0.000080
      4          1           0        2.225068    1.078182   -0.005857
      5          1           0       -2.225069    1.078197    0.000693
      6          1           0        2.225069   -1.078178    0.006446
 ---------------------------------------------------------------------

 Alpha  occ. eigenvalues --   -7.11037  -7.11036  -0.57682  -0.57093  -0.44607
 Alpha  occ. eigenvalues --   -0.44383  -0.21696
 Alpha virt. eigenvalues --   -0.05239  -0.04740  -0.03333   0.02307   0.03487
 Alpha virt. eigenvalues --    0.03855   0.05599   0.06279   0.07429   0.07971
 Alpha virt. eigenvalues --    0.10213   0.15660   0.16615   0.17191   0.25049

  Beta  occ. eigenvalues --   -7.11037  -7.11036  -0.57682  -0.57093  -0.44607
  Beta  occ. eigenvalues --   -0.44383  -0.21696
  Beta virt. eigenvalues --   -0.05239  -0.04740  -0.03333   0.02307   0.03487
  Beta virt. eigenvalues --    0.03855   0.05599   0.06279   0.07429   0.07971
  Beta virt. eigenvalues --    0.10213   0.15660   0.16615   0.17191   0.25049

 Mulliken charges and spin densities:
               1          2
     1  B   -0.053005  -0.000000
     2  B   -0.053005   0.000000
     3  H    0.026502  -0.000000
     4  H    0.026502   0.000000
     5  H    0.026502  -0.000000
     6  H    0.026502   0.000000
 Sum of Mulliken charges =  -0.00000  -0.00000

 Dipole moment (field-independent basis, Debye):
    X=              0.0000    Y=              0.0000    Z=              0.0003  Tot=              0.0003
 Quadrupole moment (field-independent basis, Debye-Ang):
   XX=            -12.6747   YY=            -16.9170   ZZ=            -14.3246
   XY=             -0.0000   XZ=              0.0000   YZ=              0.0069

 Normal termination of Gaussian 16 at Mon Apr 21 17:12:14 2025.
