 Gaussian 16, Revision A.03,
 Gaussian 16:  ES64L-G16RevA.03 25-Dec-2016

 --------------------------------------------
 #p opt UM062X/6-311+G** nosymm int=superfine
 --------------------------------------------

 -------------------
 Title Card Required
 -------------------
 Symbolic Z-matrix:
 Charge =  0 Multiplicity = 1

 SCF Done:  E(UM062X) =  -95.8295042267     A.U. after   11 cycles
 SCF Done:  E(UM062X) =  -95.8302424874     A.U. after   10 cycles
 SCF Done:  E(UM062X) =  -95.8302561549     A.U. after    9 cycles
 Optimization completed.
    -- Stationary point found.

                          Input orientation:
 ---------------------------------------------------------------------
 Center     Atomic      Atomic             Coordinates (Angstroms)
 Number     Number       Type             X           Y           Z
 ---------------------------------------------------------------------
      1          6           0       -0.780542    0.000000    0.000000
      2          7           0        0.780542    0.000000    0.000000
      3          1           0        1.095898   -0.963680    0.033037
      4          1           0       -1.109110    1.037458   -0.015704
      5          1           0        1.095806    0.436347    0.859899
      6          1           0       -1.109113   -0.486289   -0.916564
      7          1           0       -1.211927   -0.510836    0.864064
 ---------------------------------------------------------------------

 Alpha  occ. eigenvalues --  -14.72826 -10.55807  -0.96122  -0.75452  -0.55361
 Alpha  occ. eigenvalues --   -0.49789  -0.45497  -0.44237  -0.31260
 Alpha virt. eigenvalues --    0.01474   0.03804   0.05072   0.05932   0.11206
 Alpha virt. eigenvalues --    0.13878   0.16013   0.18042   0.19355   0.21279
 Alpha virt. eigenvalues --    0.22012   0.23059   0.24324   0.29096   0.43040

  Beta  occ. eigenvalues --  -14.72826 -10.55807  -0.96122  -0.75452  -0.55361
  Beta  occ. eigenvalues --   -0.49789  -0.45497  -0.44237  -0.31260
  Beta virt. eigenvalues --    0.01474   0.03804   0.05072   0.05932   0.11206
  Beta virt. eigenvalues --    0.13878   0.16013   0.18042   0.19355   0.21279
  Beta virt. eigenvalues --    0.22012   0.23059   0.24324   0.29096   0.43040

 Mulliken charges and spin densities:
               1          2
     1  C   -0.407335   0.000000
     2  N   -0.522663   0.000000
     3  H    0.235423  -0.000000
     4  H    0.158124  -0.000000
     5  H    0.235406  -0.000000
     6  H    0.158141  -0.000000
     7  H    0.142904  -0.000000
 Sum of Mulliken charges =  -0.00000   0.00000

 Dipole moment (field-independent basis, Debye):
    X=             -0.7412    Y=             -0.7518    Z=              1.2731  Tot=              1.6539
 Quadrupole moment (field-independent basis, Debye-Ang):
   XX=            -14.5949   YY=            -13.2871   ZZ=            -14.4354
   XY=             -1.1765   XZ=              1.9916   YZ=              1.0416

 Normal termination of Gaussian 16 at Mon Apr 21 18:09:24 2025.
