 Gaussian 16, Revision A.03,
 Gaussian 16:  ES64L-G16RevA.03 25-Dec-2016

 ---------------------------------------------------
 #p UM062X/6-311+G** force int=superfine pop=saveNBO
 ---------------------------------------------------

 -------------------
 Title Card Required
 -------------------
 Symbolic Z-matrix:
 Charge =  0 Multiplicity = 1

                         Standard orientation:
 ---------------------------------------------------------------------
 Center     Atomic      Atomic             Coordinates (Angstroms)
 Number     Number       Type             X           Y           Z
 ---------------------------------------------------------------------
      1          8           0       -0.000000    0.000000    1.435656
      2         16           0       -0.000000    0.000000   -0.736357
      3          1           0        0.000000   -0.000000    2.407210
      4          1           0        0.000000   -0.000000   -2.110745
 ---------------------------------------------------------------------

 SCF Done:  E(UM062X) =  -474.384660764     A.U. after   13 cycles

 Unable to determine electronic state:  an orbital has unidentified symmetry.
 Alpha  occ. eigenvalues --  -89.97169 -19.64561  -8.33170  -6.25328  -6.24991
 Alpha  occ. eigenvalues --   -6.24280  -1.07568  -0.82365  -0.57486  -0.40905
 Alpha  occ. eigenvalues --   -0.39758  -0.36014  -0.33131
 Alpha virt. eigenvalues --   -0.19173   0.01797   0.05349   0.05484   0.06023
 Alpha virt. eigenvalues --    0.08481   0.16550   0.20537   0.20899   0.23856
 Alpha virt. eigenvalues --    0.34216   0.35256   0.35501   0.36123   0.39003

  Beta  occ. eigenvalues --  -89.97169 -19.64561  -8.33170  -6.25328  -6.24991
  Beta  occ. eigenvalues --   -6.24280  -1.07568  -0.82365  -0.57486  -0.40905
  Beta  occ. eigenvalues --   -0.39758  -0.36014  -0.33131
  Beta virt. eigenvalues --   -0.19173   0.01797   0.05349   0.05484   0.06023
  Beta virt. eigenvalues --    0.08481   0.16550   0.20537   0.20899   0.23856
  Beta virt. eigenvalues --    0.34216   0.35256   0.35501   0.36123   0.39003

 Mulliken charges and spin densities:
               1          2
     1  O   -0.399052  -0.000000
     2  S    0.046192   0.000000
     3  H    0.317997  -0.000000
     4  H    0.034863  -0.000000
 Sum of Mulliken charges =  -0.00000   0.00000

 Dipole moment (field-independent basis, Debye):
    X=              0.0000    Y=             -0.0000    Z=             -1.0038  Tot=              1.0038
 Quadrupole moment (field-independent basis, Debye-Ang):
   XX=            -22.6853   YY=            -18.6969   ZZ=            -12.5697
   XY=              0.0000   XZ=              0.0000   YZ=             -0.0000

 Summary of Natural Population Analysis:

                                       Natural Population
                Natural  -----------------------------------------------
    Atom  No    Charge         Core      Valence    Rydberg      Total
 -----------------------------------------------------------------------
      O    1   -0.36796      0.99995     3.35991    0.00810     4.36796
      S    2    0.13936      4.99968     2.84707    0.01390     7.86064
      H    3    0.22130      0.00000     0.27642    0.00228     0.27870
      H    4    0.00730      0.00000     0.49009    0.00261     0.49270
 =======================================================================
   * Total *   -0.00000      5.99963     6.97349    0.02689    13.00000

 1\1\GINC-NODE01\Force\UM062X\6-311+G(d,p)\H2O1S1\SZHAO\16-Apr-2025\0\\
 #p UM062X/6-311+G** force int=superfine pop=saveNBO\\Title Card Requir
 ed\\0,1\O,-1.0860065002,-0.0000677325,0.000000375\S,1.0860064998,-0.00
 0073906,-0.0000006555\H,-2.0575605478,-0.000064971,0.0000008359\H,2.46
 03944527,-0.0000778125,-0.0000013075\\Version=ES64L-G16RevA.03\HF=-474
 .3846608\S2=0.\S2-1=0.\S2A=0.\RMSD=2.850e-09\RMSF=4.520e-06\Dipole=0.3
 949176,-0.0000011,-0.0000002\Quadrupole=4.025392,-0.5300369,-3.4953551
 ,-0.0000129,-0.0000036,-0.0000084\PG=C*V [C*(H1S1O1H1)]\\@

 Normal termination of Gaussian 16 at Wed Apr 16 05:30:59 2025.
