 Gaussian 16, Revision A.03,
 Gaussian 16:  ES64L-G16RevA.03 25-Dec-2016

 --------------------------------------------
 #p opt UM062X/6-311+G** nosymm int=superfine
 --------------------------------------------

 -------------------
 Title Card Required
 -------------------
 Symbolic Z-matrix:
 Charge =  0 Multiplicity = 1

 SCF Done:  E(UM062X) =  -151.445676789     A.U. after   14 cycles
 SCF Done:  E(UM062X) =  -151.451439757     A.U. after   16 cycles
 SCF Done:  E(UM062X) =  -151.452697338     A.U. after   15 cycles
 SCF Done:  E(UM062X) =  -151.452749432     A.U. after   11 cycles
 SCF Done:  E(UM062X) =  -151.452753439     A.U. after   12 cycles
 SCF Done:  E(UM062X) =  -151.452758830     A.U. after   12 cycles
 SCF Done:  E(UM062X) =  -151.452759278     A.U. after   11 cycles
 SCF Done:  E(UM062X) =  -151.452759384     A.U. after   10 cycles
 SCF Done:  E(UM062X) =  -151.452759410     A.U. after   10 cycles
 Optimization completed on the basis of negligible forces.
    -- Stationary point found.

                          Input orientation:
 ---------------------------------------------------------------------
 Center     Atomic      Atomic             Coordinates (Angstroms)
 Number     Number       Type             X           Y           Z
 ---------------------------------------------------------------------
      1          8           0       -1.011938    0.000000    0.000000
      2          8           0        1.011938    0.000000    0.000000
      3          1           0       -0.973443   -0.825825   -0.509266
      4          1           0        0.973563    0.733847    0.634673
 ---------------------------------------------------------------------

 Alpha  occ. eigenvalues --  -19.72078 -19.72072  -1.15623  -1.09462  -0.58066
 Alpha  occ. eigenvalues --   -0.54806  -0.45583  -0.44979  -0.41327
 Alpha virt. eigenvalues --   -0.15101   0.05604   0.09923   0.14827   0.16329
 Alpha virt. eigenvalues --    0.17488   0.19828   0.21793   0.23634   0.25428
 Alpha virt. eigenvalues --    0.34386   0.49201   0.53929   0.95212   0.99604

  Beta  occ. eigenvalues --  -19.72078 -19.72072  -1.15623  -1.09462  -0.58066
  Beta  occ. eigenvalues --   -0.54806  -0.45583  -0.44979  -0.41327
  Beta virt. eigenvalues --   -0.15101   0.05604   0.09923   0.14827   0.16329
  Beta virt. eigenvalues --    0.17488   0.19828   0.21793   0.23634   0.25428
  Beta virt. eigenvalues --    0.34386   0.49201   0.53929   0.95212   0.99604

 Mulliken charges and spin densities:
               1          2
     1  O   -0.272253  -0.000000
     2  O   -0.272276   0.000000
     3  H    0.272265   0.000000
     4  H    0.272264  -0.000000
 Sum of Mulliken charges =  -0.00000  -0.00000

 Dipole moment (field-independent basis, Debye):
    X=              0.0001    Y=             -0.1745    Z=              0.2379  Tot=              0.2950
 Quadrupole moment (field-independent basis, Debye-Ang):
   XX=            -11.7841   YY=            -10.1842   ZZ=            -11.7302
   XY=              3.1901   XZ=              2.3398   YZ=              2.4541

 Normal termination of Gaussian 16 at Mon Apr 21 21:34:56 2025.
