 Gaussian 16, Revision A.03,
 Gaussian 16:  ES64L-G16RevA.03 25-Dec-2016

 --------------------------------------------
 #p opt UM062X/6-311+G** nosymm int=superfine
 --------------------------------------------

 -------------------
 Title Card Required
 -------------------
 Symbolic Z-matrix:
 Charge =  0 Multiplicity = 1

 SCF Done:  E(UM062X) =  -579.888264048     A.U. after   10 cycles
 SCF Done:  E(UM062X) =  -579.891205695     A.U. after   10 cycles
 SCF Done:  E(UM062X) =  -579.891211851     A.U. after    7 cycles
 Optimization completed.
    -- Stationary point found.

                          Input orientation:
 ---------------------------------------------------------------------
 Center     Atomic      Atomic             Coordinates (Angstroms)
 Number     Number       Type             X           Y           Z
 ---------------------------------------------------------------------
      1         14           0       -1.953705    0.000000    0.000000
      2         14           0        1.953705    0.000000    0.000000
      3          1           0       -3.480632   -0.000025   -0.000000
      4          1           0        3.480632    0.000043    0.000000
 ---------------------------------------------------------------------

 Alpha  occ. eigenvalues --  -67.04506 -67.04506  -5.58924  -5.58922  -3.90027
 Alpha  occ. eigenvalues --   -3.90027  -3.89578  -3.89578  -3.89441  -3.89441
 Alpha  occ. eigenvalues --   -0.55045  -0.54534  -0.34283  -0.30789  -0.18336
 Alpha virt. eigenvalues --   -0.10216  -0.09469  -0.07978   0.02300   0.02938
 Alpha virt. eigenvalues --    0.04556   0.05727   0.05742   0.05983   0.07083
 Alpha virt. eigenvalues --    0.07347   0.09017   0.17925   0.29255   0.29502

  Beta  occ. eigenvalues --  -67.04506 -67.04506  -5.58924  -5.58922  -3.90027
  Beta  occ. eigenvalues --   -3.90027  -3.89578  -3.89578  -3.89441  -3.89441
  Beta  occ. eigenvalues --   -0.55045  -0.54534  -0.34283  -0.30789  -0.18336
  Beta virt. eigenvalues --   -0.10216  -0.09469  -0.07978   0.02300   0.02938
  Beta virt. eigenvalues --    0.04556   0.05727   0.05742   0.05983   0.07083
  Beta virt. eigenvalues --    0.07347   0.09017   0.17925   0.29255   0.29502

 Mulliken charges and spin densities:
               1          2
     1  Si   0.145615   0.000000
     2  Si   0.145615  -0.000000
     3  H   -0.145615  -0.000000
     4  H   -0.145615   0.000000
 Sum of Mulliken charges =  -0.00000   0.00000

 Dipole moment (field-independent basis, Debye):
    X=             -0.0000    Y=              0.0000    Z=              0.0000  Tot=              0.0000
 Quadrupole moment (field-independent basis, Debye-Ang):
   XX=            -30.8232   YY=            -24.2653   ZZ=            -35.6511
   XY=             -0.0002   XZ=             -0.0000   YZ=              0.0001

 Normal termination of Gaussian 16 at Mon Apr 21 21:26:02 2025.
