 Gaussian 16, Revision A.03,
 Gaussian 16:  ES64L-G16RevA.03 25-Dec-2016

 ---------------------------------------
 #p UM062X/6-311+G** force int=superfine
 ---------------------------------------

 -------------------
 Title Card Required
 -------------------
 Symbolic Z-matrix:
 Charge =  1 Multiplicity = 2

                         Standard orientation:
 ---------------------------------------------------------------------
 Center     Atomic      Atomic             Coordinates (Angstroms)
 Number     Number       Type             X           Y           Z
 ---------------------------------------------------------------------
      1          6           0        0.000000    0.000000   -0.876091
      2          6           0        0.000000    0.000000    0.876095
      3          1           0        0.000000    0.000000   -1.974467
      4          1           0        0.000000    0.000000    1.974444
 ---------------------------------------------------------------------

 SCF Done:  E(UM062X) =  -76.7037222029     A.U. after   10 cycles

 Unable to determine electronic state:  an orbital has unidentified symmetry.
 Alpha  occ. eigenvalues --  -11.00369 -11.00337  -1.09125  -0.99376  -0.83290
 Alpha  occ. eigenvalues --   -0.62695  -0.60616
 Alpha virt. eigenvalues --   -0.37069  -0.35084  -0.30148  -0.14161  -0.11489
 Alpha virt. eigenvalues --   -0.10418  -0.08965  -0.08732  -0.05338  -0.05035
 Alpha virt. eigenvalues --    0.01130   0.03584   0.06988   0.23056   0.31317

  Beta  occ. eigenvalues --  -11.00113 -11.00092  -1.05429  -0.97576  -0.82340
  Beta  occ. eigenvalues --   -0.58692
  Beta virt. eigenvalues --   -0.40246  -0.33355  -0.28735  -0.28063  -0.15164
  Beta virt. eigenvalues --   -0.11813  -0.10913  -0.09339  -0.09176  -0.05313
  Beta virt. eigenvalues --   -0.05044   0.00199   0.03680   0.07232   0.23649

 Mulliken charges and spin densities:
               1          2
     1  C    0.133471   0.522132
     2  C    0.133468   0.522149
     3  H    0.366536  -0.022141
     4  H    0.366525  -0.022140
 Sum of Mulliken charges =   1.00000   1.00000

 Dipole moment (field-independent basis, Debye):
    X=              0.0000    Y=              0.0000    Z=             -0.0001  Tot=              0.0001
 Quadrupole moment (field-independent basis, Debye-Ang):
   XX=            -10.7918   YY=            -12.8999   ZZ=              3.6979
   XY=              0.0000   XZ=              0.0000   YZ=              0.0000

 Normal termination of Gaussian 16 at Tue Nov 19 13:38:24 2024.
