 Gaussian 16, Revision A.03,
 Gaussian 16:  ES64L-G16RevA.03 25-Dec-2016

 --------------------------------------------
 #p opt UM062X/6-311+G** nosymm int=superfine
 --------------------------------------------

 -------------------
 Title Card Required
 -------------------
 Symbolic Z-matrix:
 Charge =  1 Multiplicity = 2

 SCF Done:  E(UM062X) =  -80.0956720134     A.U. after   34 cycles
 SCF Done:  E(UM062X) =  -80.0962961800     A.U. after   21 cycles
 SCF Done:  E(UM062X) =  -80.1679277437     A.U. after   66 cycles
 SCF Done:  E(UM062X) =  -80.1802346240     A.U. after   17 cycles
 SCF Done:  E(UM062X) =  -80.1718130532     A.U. after   16 cycles
 SCF Done:  E(UM062X) =  -80.1890947518     A.U. after   15 cycles
 SCF Done:  E(UM062X) =  -80.1899296368     A.U. after   16 cycles
 SCF Done:  E(UM062X) =  -80.1923019418     A.U. after   13 cycles
 SCF Done:  E(UM062X) =  -80.1924687903     A.U. after   13 cycles
 SCF Done:  E(UM062X) =  -80.1924697936     A.U. after   11 cycles
 SCF Done:  E(UM062X) =  -80.1924703320     A.U. after   11 cycles
 Optimization completed.
    -- Stationary point found.

                          Input orientation:
 ---------------------------------------------------------------------
 Center     Atomic      Atomic             Coordinates (Angstroms)
 Number     Number       Type             X           Y           Z
 ---------------------------------------------------------------------
      1          5           0       -1.127734    0.000000    0.000000
      2          7           0        1.127734    0.000000    0.000000
      3          1           0       -2.048683    0.763624    0.000189
      4          1           0        1.339576    1.022618    0.000001
 ---------------------------------------------------------------------

 Alpha  occ. eigenvalues --  -15.08821  -7.50871  -1.19250  -0.84865  -0.72885
 Alpha  occ. eigenvalues --   -0.65733  -0.65676
 Alpha virt. eigenvalues --   -0.35581  -0.31407  -0.29089  -0.15097  -0.11261
 Alpha virt. eigenvalues --   -0.09637  -0.09348  -0.05101  -0.04399  -0.01251
 Alpha virt. eigenvalues --   -0.00942   0.03648   0.06370   0.13624   0.16391

  Beta  occ. eigenvalues --  -15.07002  -7.51735  -1.09166  -0.86944  -0.70723
  Beta  occ. eigenvalues --   -0.61482
  Beta virt. eigenvalues --   -0.37326  -0.35380  -0.28043  -0.24462  -0.15250
  Beta virt. eigenvalues --   -0.11288  -0.10281  -0.09728  -0.05358  -0.04826
  Beta virt. eigenvalues --   -0.00894  -0.00316   0.03109   0.03675   0.14352

 Mulliken charges and spin densities:
               1          2
     1  B    0.564941  -0.521909
     2  N   -0.015846   1.675045
     3  H    0.196742  -0.091567
     4  H    0.254163  -0.061569
 Sum of Mulliken charges =   1.00000   1.00000

 Dipole moment (field-independent basis, Debye):
    X=             -3.8107    Y=              2.0034    Z=              0.0001  Tot=              4.3052
 Quadrupole moment (field-independent basis, Debye-Ang):
   XX=             -0.8055   YY=             -8.9229   ZZ=            -10.1571
   XY=              2.3006   XZ=             -0.0001   YZ=              0.0000

 Normal termination of Gaussian 16 at Mon Apr 21 17:54:13 2025.
