 Gaussian 16, Revision A.03,
 Gaussian 16:  ES64L-G16RevA.03 25-Dec-2016

 --------------------------------------------
 #p opt UM062X/6-311+G** nosymm int=superfine
 --------------------------------------------

 -------------------
 Title Card Required
 -------------------
 Symbolic Z-matrix:
 Charge =  0 Multiplicity = 1

 SCF Done:  E(UM062X) =  -77.2917085865     A.U. after    9 cycles
 SCF Done:  E(UM062X) =  -77.3003967746     A.U. after    9 cycles
 SCF Done:  E(UM062X) =  -77.3004590211     A.U. after    8 cycles
 Optimization completed.
    -- Stationary point found.

                          Input orientation:
 ---------------------------------------------------------------------
 Center     Atomic      Atomic             Coordinates (Angstroms)
 Number     Number       Type             X           Y           Z
 ---------------------------------------------------------------------
      1          6           0       -0.646397    0.000000    0.000000
      2          6           0        0.646397    0.000000    0.000000
      3          1           0       -1.712855   -0.000000    0.000000
      4          1           0        1.712855   -0.000000    0.000000
 ---------------------------------------------------------------------

 Alpha  occ. eigenvalues --  -10.57498 -10.57350  -0.83434  -0.65915  -0.56519
 Alpha  occ. eigenvalues --   -0.34362  -0.34362
 Alpha virt. eigenvalues --    0.02541   0.02603   0.02960   0.02960   0.07802
 Alpha virt. eigenvalues --    0.07802   0.09303   0.13443   0.13443   0.14833
 Alpha virt. eigenvalues --    0.19203   0.24086   0.37371   0.45161   0.57659

  Beta  occ. eigenvalues --  -10.57498 -10.57350  -0.83434  -0.65915  -0.56519
  Beta  occ. eigenvalues --   -0.34362  -0.34362
  Beta virt. eigenvalues --    0.02541   0.02603   0.02960   0.02960   0.07802
  Beta virt. eigenvalues --    0.07802   0.09303   0.13443   0.13443   0.14833
  Beta virt. eigenvalues --    0.19203   0.24086   0.37371   0.45161   0.57659

 Mulliken charges and spin densities:
               1          2
     1  C   -0.191991   0.000000
     2  C   -0.191991  -0.000000
     3  H    0.191991   0.000000
     4  H    0.191991  -0.000000
 Sum of Mulliken charges =  -0.00000  -0.00000

 Dipole moment (field-independent basis, Debye):
    X=             -0.0000    Y=             -0.0000    Z=              0.0000  Tot=              0.0000
 Quadrupole moment (field-independent basis, Debye-Ang):
   XX=             -6.5550   YY=            -14.2441   ZZ=            -14.2441
   XY=              0.0000   XZ=             -0.0000   YZ=              0.0000

 Normal termination of Gaussian 16 at Tue Dec  3 20:04:43 2024.
