 Gaussian 16, Revision A.03,
 Gaussian 16:  ES64L-G16RevA.03 25-Dec-2016

 --------------------------------------------
 #p opt UM062X/6-311+G** nosymm int=superfine
 --------------------------------------------

 -------------------
 Title Card Required
 -------------------
 Symbolic Z-matrix:
 Charge =  1 Multiplicity = 2

 SCF Done:  E(UM062X) =  -79.3117391585     A.U. after   10 cycles
 SCF Done:  E(UM062X) =  -79.3136835940     A.U. after    9 cycles
 SCF Done:  E(UM062X) =  -79.3137121494     A.U. after    9 cycles
 Optimization completed.
    -- Stationary point found.

                          Input orientation:
 ---------------------------------------------------------------------
 Center     Atomic      Atomic             Coordinates (Angstroms)
 Number     Number       Type             X           Y           Z
 ---------------------------------------------------------------------
      1          6           0       -2.225608    0.000000    0.000000
      2          6           0        2.225608    0.000000    0.000000
      3          1           0        2.247227   -0.937319    0.542509
      4          1           0       -2.245205   -0.938411   -0.540685
      5          1           0        2.246353    0.938507    0.540480
      6          1           0        2.245295   -0.001173   -1.083025
      7          1           0       -2.247289    0.937429   -0.542316
      8          1           0       -2.246381    0.000953    1.083007
 ---------------------------------------------------------------------

 Alpha  occ. eigenvalues --  -10.82748 -10.82748  -1.01383  -1.01202  -0.72503
 Alpha  occ. eigenvalues --   -0.72502  -0.72461  -0.72460  -0.45816
 Alpha virt. eigenvalues --   -0.37909  -0.12238  -0.10003  -0.08951  -0.08951
 Alpha virt. eigenvalues --   -0.06187  -0.06187  -0.04465  -0.02465   0.00725
 Alpha virt. eigenvalues --    0.00727   0.01576   0.01578   0.02226   0.09220

  Beta  occ. eigenvalues --  -10.82520 -10.82520  -0.98715  -0.98638  -0.71960
  Beta  occ. eigenvalues --   -0.71960  -0.71913  -0.71912
  Beta virt. eigenvalues --   -0.30992  -0.26683  -0.17045  -0.10250  -0.10052
  Beta virt. eigenvalues --   -0.10050  -0.06111  -0.06110  -0.05816  -0.01491
  Beta virt. eigenvalues --    0.00688   0.00692   0.01822   0.01824   0.02272

 Mulliken charges and spin densities:
               1          2
     1  C   -0.232696   0.560011
     2  C   -0.232696   0.560011
     3  H    0.244253  -0.019998
     4  H    0.244217  -0.019999
     5  H    0.244236  -0.020002
     6  H    0.244207  -0.020011
     7  H    0.244254  -0.019998
     8  H    0.244225  -0.020014
 Sum of Mulliken charges =   1.00000   1.00000

 Dipole moment (field-independent basis, Debye):
    X=             -0.0000    Y=             -0.0000    Z=             -0.0000  Tot=              0.0000
 Quadrupole moment (field-independent basis, Debye-Ang):
   XX=             12.0443   YY=            -11.1228   ZZ=            -11.1229
   XY=             -0.0022   XZ=              0.0012   YZ=              0.0000

 Normal termination of Gaussian 16 at Sat Nov 16 16:12:37 2024.
