 Gaussian 16, Revision A.03,
 Gaussian 16:  ES64L-G16RevA.03 25-Dec-2016

 ---------------------------------------
 #p UM062X/6-311+G** force int=superfine
 ---------------------------------------

 -------------------
 Title Card Required
 -------------------
 Symbolic Z-matrix:
 Charge =  0 Multiplicity = 1

                         Standard orientation:
 ---------------------------------------------------------------------
 Center     Atomic      Atomic             Coordinates (Angstroms)
 Number     Number       Type             X           Y           Z
 ---------------------------------------------------------------------
      1          6           0       -0.003596   -0.064023    1.143582
      2          6           0        0.003597    0.064023   -1.143583
      3          1           0        0.481450   -0.863950   -1.431637
      4          1           0       -0.582114   -0.960307    1.329183
      5          1           0        0.582112    0.960308   -1.329185
      6          1           0       -1.050548    0.135497   -1.380489
      7          1           0       -0.481450    0.863950    1.431637
      8          1           0        1.050547   -0.135498    1.380493
 ---------------------------------------------------------------------

 SCF Done:  E(UM062X) =  -79.7020535666     A.U. after    8 cycles

 The electronic state is 1-A.
 Alpha  occ. eigenvalues --  -10.55375 -10.55369  -0.77838  -0.73660  -0.48260
 Alpha  occ. eigenvalues --   -0.48260  -0.45730  -0.45730  -0.29793
 Alpha virt. eigenvalues --    0.00042   0.02463   0.05572   0.05572   0.07784
 Alpha virt. eigenvalues --    0.08327   0.08327   0.09897   0.13173   0.18161
 Alpha virt. eigenvalues --    0.18161   0.22093   0.22093   0.24363   0.26434

  Beta  occ. eigenvalues --  -10.55375 -10.55369  -0.77838  -0.73660  -0.48260
  Beta  occ. eigenvalues --   -0.48260  -0.45730  -0.45730  -0.29793
  Beta virt. eigenvalues --    0.00042   0.02463   0.05572   0.05572   0.07784
  Beta virt. eigenvalues --    0.08327   0.08327   0.09897   0.13173   0.18161
  Beta virt. eigenvalues --    0.18161   0.22093   0.22093   0.24363   0.26434

 Mulliken charges and spin densities:
               1          2
     1  C   -0.506524   0.000000
     2  C   -0.506525  -0.000000
     3  H    0.168841   0.000000
     4  H    0.168842  -0.000000
     5  H    0.168842   0.000000
     6  H    0.168842   0.000000
     7  H    0.168841  -0.000000
     8  H    0.168842  -0.000000
 Sum of Mulliken charges =  -0.00000   0.00000

 Dipole moment (field-independent basis, Debye):
    X=             -0.0000    Y=             -0.0000    Z=              0.0000  Tot=              0.0000
 Quadrupole moment (field-independent basis, Debye-Ang):
   XX=            -14.8248   YY=            -14.8270   ZZ=            -15.5434
   XY=             -0.0001   XZ=              0.0022   YZ=              0.0402

 Normal termination of Gaussian 16 at Tue Nov 19 12:55:04 2024.
