 Gaussian 16, Revision A.03,
 Gaussian 16:  ES64L-G16RevA.03 25-Dec-2016

 --------------------------------------------
 #p opt UM062X/6-311+G** nosymm int=superfine
 --------------------------------------------

 -------------------
 Title Card Required
 -------------------
 Symbolic Z-matrix:
 Charge = -1 Multiplicity = 2

 SCF Done:  E(UM062X) =  -53.1985748145     A.U. after   12 cycles
 SCF Done:  E(UM062X) =  -53.2029375065     A.U. after   11 cycles
 SCF Done:  E(UM062X) =  -53.2038921464     A.U. after   10 cycles
 SCF Done:  E(UM062X) =  -53.2039003095     A.U. after    8 cycles
 Optimization completed.
    -- Stationary point found.

                          Input orientation:
 ---------------------------------------------------------------------
 Center     Atomic      Atomic             Coordinates (Angstroms)
 Number     Number       Type             X           Y           Z
 ---------------------------------------------------------------------
      1          5           0       -2.140672    0.000000    0.000000
      2          5           0        2.140672    0.000000    0.000000
      3          1           0        2.200241   -1.197004   -0.000015
      4          1           0       -2.200142   -0.598494    1.036643
      5          1           0        2.200306    0.598512   -1.036624
      6          1           0        2.200076    0.598480    1.036654
      7          1           0       -2.200249    1.197004   -0.000001
      8          1           0       -2.200232   -0.598499   -1.036635
 ---------------------------------------------------------------------

 Alpha  occ. eigenvalues --   -6.84898  -6.84898  -0.40210  -0.39816  -0.22065
 Alpha  occ. eigenvalues --   -0.22065  -0.21888  -0.21888   0.01254
 Alpha virt. eigenvalues --    0.10965   0.16671   0.17661   0.17661   0.18210
 Alpha virt. eigenvalues --    0.18210   0.18824   0.23049   0.24025   0.32816
 Alpha virt. eigenvalues --    0.32816   0.34070   0.34071   0.35782   0.38656

  Beta  occ. eigenvalues --   -6.84861  -6.84861  -0.38509  -0.38246  -0.21911
  Beta  occ. eigenvalues --   -0.21911  -0.21716  -0.21716
  Beta virt. eigenvalues --    0.09072   0.13183   0.13326   0.14628   0.14628
  Beta virt. eigenvalues --    0.17695   0.17695   0.20575   0.22147   0.24899
  Beta virt. eigenvalues --    0.31735   0.31736   0.33185   0.33185   0.33950

 Mulliken charges and spin densities:
               1          2
     1  B   -0.353743   0.553097
     2  B   -0.353742   0.553097
     3  H   -0.048717  -0.017655
     4  H   -0.048768  -0.017721
     5  H   -0.048775  -0.017720
     6  H   -0.048766  -0.017721
     7  H   -0.048717  -0.017655
     8  H   -0.048772  -0.017721
 Sum of Mulliken charges =  -1.00000   1.00000

 Dipole moment (field-independent basis, Debye):
    X=              0.0000    Y=             -0.0000    Z=              0.0001  Tot=              0.0001
 Quadrupole moment (field-independent basis, Debye-Ang):
   XX=            -45.8586   YY=            -24.3366   ZZ=            -24.3369
   XY=             -0.0001   XZ=              0.0000   YZ=              0.0000

 Normal termination of Gaussian 16 at Mon Apr 21 16:56:11 2025.
