 Gaussian 16, Revision A.03,
 Gaussian 16:  ES64L-G16RevA.03 25-Dec-2016

 ---------------------------------------
 #p UM062X/6-311+G** force int=superfine
 ---------------------------------------

 -------------------
 Title Card Required
 -------------------
 Symbolic Z-matrix:
 Charge =  1 Multiplicity = 2

                         Standard orientation:
 ---------------------------------------------------------------------
 Center     Atomic      Atomic             Coordinates (Angstroms)
 Number     Number       Type             X           Y           Z
 ---------------------------------------------------------------------
      1          6           0        0.998670    0.000008    0.000048
      2          6           0       -0.998670   -0.000017   -0.000046
      3          1           0       -1.138290    0.188626    1.060034
      4          1           0        1.137593    1.012500    0.366698
      5          1           0       -1.137782   -1.012445   -0.366802
      6          1           0       -1.137646    0.823777   -0.693529
      7          1           0        1.138300   -0.188707   -1.060019
      8          1           0        1.137824   -0.823694    0.693605
 ---------------------------------------------------------------------

 SCF Done:  E(UM062X) =  -79.3691659881     A.U. after    9 cycles

 The electronic state is 2-A.
 Alpha  occ. eigenvalues --  -10.86096 -10.86084  -1.11079  -1.01351  -0.78990
 Alpha  occ. eigenvalues --   -0.78988  -0.73581  -0.73580  -0.63721
 Alpha virt. eigenvalues --   -0.23064  -0.16565  -0.11234  -0.11234  -0.09819
 Alpha virt. eigenvalues --   -0.07333  -0.06444  -0.06443  -0.05551  -0.05550
 Alpha virt. eigenvalues --   -0.01835   0.01561   0.01565   0.04219   0.07414

  Beta  occ. eigenvalues --  -10.85876 -10.85876  -1.07517  -0.98339  -0.77980
  Beta  occ. eigenvalues --   -0.77978  -0.72767  -0.72766
  Beta virt. eigenvalues --   -0.40038  -0.17022  -0.16148  -0.11159  -0.11159
  Beta virt. eigenvalues --   -0.07912  -0.07514  -0.06651  -0.06650  -0.05124
  Beta virt. eigenvalues --   -0.05122  -0.00888   0.02235   0.02238   0.04741

 Mulliken charges and spin densities:
               1          2
     1  C   -0.319829   0.545834
     2  C   -0.319829   0.545834
     3  H    0.273283  -0.015305
     4  H    0.273267  -0.015262
     5  H    0.273276  -0.015266
     6  H    0.273270  -0.015263
     7  H    0.273283  -0.015305
     8  H    0.273278  -0.015266
 Sum of Mulliken charges =   1.00000   1.00000

 Dipole moment (field-independent basis, Debye):
    X=              0.0000    Y=              0.0000    Z=             -0.0000  Tot=              0.0000
 Quadrupole moment (field-independent basis, Debye-Ang):
   XX=             -6.5204   YY=            -10.7525   ZZ=            -10.7527
   XY=             -0.0001   XZ=             -0.0003   YZ=             -0.0000

 Normal termination of Gaussian 16 at Wed Nov 13 13:43:40 2024.
