 Gaussian 16, Revision A.03,
 Gaussian 16:  ES64L-G16RevA.03 25-Dec-2016

 --------------------------------------------
 #p opt UM062X/6-311+G** nosymm int=superfine
 --------------------------------------------

 -------------------
 Title Card Required
 -------------------
 Symbolic Z-matrix:
 Charge =  0 Multiplicity = 1

 SCF Done:  E(UM062X) =  -111.607615829     A.U. after   17 cycles
 SCF Done:  E(UM062X) =  -111.610841259     A.U. after   16 cycles
 SCF Done:  E(UM062X) =  -111.612420724     A.U. after   14 cycles
 SCF Done:  E(UM062X) =  -111.613633408     A.U. after   16 cycles
 SCF Done:  E(UM062X) =  -111.614923626     A.U. after   17 cycles
 SCF Done:  E(UM062X) =  -111.616092980     A.U. after   16 cycles
 SCF Done:  E(UM062X) =  -111.616930605     A.U. after   16 cycles
 SCF Done:  E(UM062X) =  -111.617275523     A.U. after   17 cycles
 SCF Done:  E(UM062X) =  -111.617496240     A.U. after   13 cycles
 SCF Done:  E(UM062X) =  -111.617761082     A.U. after   18 cycles
 SCF Done:  E(UM062X) =  -111.617876848     A.U. after   17 cycles
 SCF Done:  E(UM062X) =  -111.617927128     A.U. after   14 cycles
 SCF Done:  E(UM062X) =  -111.617939234     A.U. after   13 cycles
 SCF Done:  E(UM062X) =  -111.617977694     A.U. after   14 cycles
 SCF Done:  E(UM062X) =  -111.618006335     A.U. after   15 cycles
 SCF Done:  E(UM062X) =  -111.618022680     A.U. after   13 cycles
 SCF Done:  E(UM062X) =  -111.618021623     A.U. after   11 cycles
 SCF Done:  E(UM062X) =  -111.618024908     A.U. after   13 cycles
 SCF Done:  E(UM062X) =  -111.618024980     A.U. after   11 cycles
 Optimization completed.
    -- Stationary point found.

                          Input orientation:
 ---------------------------------------------------------------------
 Center     Atomic      Atomic             Coordinates (Angstroms)
 Number     Number       Type             X           Y           Z
 ---------------------------------------------------------------------
      1          7           0       -2.086540    0.000000    0.000000
      2          7           0        2.086540    0.000000    0.000000
      3          1           0       -1.963679   -0.810999   -0.619130
      4          1           0        1.964085    0.402187   -0.937751
      5          1           0       -1.964878   -0.400400    0.938622
      6          1           0        1.965443    0.810022    0.620746
 ---------------------------------------------------------------------

 Alpha  occ. eigenvalues --  -14.80443 -14.80442  -0.95184  -0.95020  -0.55348
 Alpha  occ. eigenvalues --   -0.55282  -0.40725  -0.40615  -0.27695
 Alpha virt. eigenvalues --   -0.19440   0.03980   0.05862   0.08898   0.11613
 Alpha virt. eigenvalues --    0.12068   0.13012   0.15168   0.16559   0.17608
 Alpha virt. eigenvalues --    0.18436   0.22232   0.29627   0.50881   0.51879

  Beta  occ. eigenvalues --  -14.80443 -14.80442  -0.95184  -0.95020  -0.55348
  Beta  occ. eigenvalues --   -0.55282  -0.40725  -0.40615  -0.27695
  Beta virt. eigenvalues --   -0.19440   0.03980   0.05862   0.08898   0.11613
  Beta virt. eigenvalues --    0.12068   0.13012   0.15168   0.16559   0.17608
  Beta virt. eigenvalues --    0.18436   0.22232   0.29627   0.50881   0.51879

 Mulliken charges and spin densities:
               1          2
     1  N   -0.475432   0.000000
     2  N   -0.475535  -0.000000
     3  H    0.237749  -0.000000
     4  H    0.237755   0.000000
     5  H    0.237730  -0.000000
     6  H    0.237735   0.000000
 Sum of Mulliken charges =  -0.00000   0.00000

 Dipole moment (field-independent basis, Debye):
    X=              0.0012    Y=              0.0012    Z=              0.0039  Tot=              0.0043
 Quadrupole moment (field-independent basis, Debye-Ang):
   XX=            -17.3489   YY=            -14.3812   ZZ=            -11.5393
   XY=              8.5831   XZ=             -2.2540   YZ=              0.8017

 Normal termination of Gaussian 16 at Thu May 15 15:21:57 2025.
