 Gaussian 16, Revision A.03,
 Gaussian 16:  ES64L-G16RevA.03 25-Dec-2016

 --------------------------------------------
 #p opt UM062X/6-311+G** nosymm int=superfine
 --------------------------------------------

 -------------------
 Title Card Required
 -------------------
 Symbolic Z-matrix:
 Charge =  0 Multiplicity = 1

 SCF Done:  E(UM062X) =  -437.330722255     A.U. after   12 cycles
 SCF Done:  E(UM062X) =  -437.332009808     A.U. after   10 cycles
 SCF Done:  E(UM062X) =  -437.332447786     A.U. after   12 cycles
 SCF Done:  E(UM062X) =  -437.331992603     A.U. after   11 cycles
 SCF Done:  E(UM062X) =  -437.332453567     A.U. after    8 cycles
 Optimization completed.
    -- Stationary point found.

                          Input orientation:
 ---------------------------------------------------------------------
 Center     Atomic      Atomic             Coordinates (Angstroms)
 Number     Number       Type             X           Y           Z
 ---------------------------------------------------------------------
      1          6           0       -1.077140    0.000000    0.000000
      2         16           0        1.077140    0.000000    0.000000
      3          1           0       -1.568317   -0.964509    0.000216
      4          1           0       -1.568656    0.964336   -0.000425
 ---------------------------------------------------------------------

 Alpha  occ. eigenvalues --  -89.92408 -10.67367  -8.28187  -6.20295  -6.20119
 Alpha  occ. eigenvalues --   -6.19529  -0.81847  -0.71874  -0.55926  -0.40542
 Alpha  occ. eigenvalues --   -0.31760  -0.30022
 Alpha virt. eigenvalues --   -0.12339  -0.02468   0.02575   0.05018   0.06335
 Alpha virt. eigenvalues --    0.06416   0.08311   0.08504   0.09559   0.14437
 Alpha virt. eigenvalues --    0.16328   0.20562   0.34851   0.36338   0.36908

  Beta  occ. eigenvalues --  -89.92408 -10.67367  -8.28187  -6.20295  -6.20119
  Beta  occ. eigenvalues --   -6.19529  -0.81847  -0.71874  -0.55926  -0.40542
  Beta  occ. eigenvalues --   -0.31760  -0.30022
  Beta virt. eigenvalues --   -0.12339  -0.02468   0.02575   0.05018   0.06335
  Beta virt. eigenvalues --    0.06416   0.08311   0.08504   0.09559   0.14437
  Beta virt. eigenvalues --    0.16328   0.20562   0.34851   0.36338   0.36908

 Mulliken charges and spin densities:
               1          2
     1  C   -0.342187   0.000000
     2  S   -0.081744  -0.000000
     3  H    0.211967  -0.000000
     4  H    0.211964  -0.000000
 Sum of Mulliken charges =  -0.00000  -0.00000

 Dipole moment (field-independent basis, Debye):
    X=             -2.7803    Y=             -0.0001    Z=             -0.0002  Tot=              2.7803
 Quadrupole moment (field-independent basis, Debye-Ang):
   XX=            -16.8160   YY=            -21.0407   ZZ=            -21.5269
   XY=             -0.0004   XZ=              0.0001   YZ=             -0.0002

 Normal termination of Gaussian 16 at Mon Apr 21 19:39:49 2025.
