 Gaussian 16, Revision A.03,
 Gaussian 16:  ES64L-G16RevA.03 25-Dec-2016

 --------------------------------------------
 #p opt UM062X/6-311+G** nosymm int=superfine
 --------------------------------------------

 -------------------
 Title Card Required
 -------------------
 Symbolic Z-matrix:
 Charge =  1 Multiplicity = 2

 SCF Done:  E(UM062X) =  -76.5865889011     A.U. after   10 cycles
 SCF Done:  E(UM062X) =  -76.5869683654     A.U. after   10 cycles
 Optimization completed.
    -- Stationary point found.

                          Input orientation:
 ---------------------------------------------------------------------
 Center     Atomic      Atomic             Coordinates (Angstroms)
 Number     Number       Type             X           Y           Z
 ---------------------------------------------------------------------
      1          6           0       -1.557160    0.000000    0.000000
      2          6           0        1.557160    0.000000    0.000000
      3          1           0       -2.675782    0.000000   -0.000000
      4          1           0        2.675781    0.000000   -0.000000
 ---------------------------------------------------------------------

 Alpha  occ. eigenvalues --  -10.95155 -10.95154  -0.98942  -0.98490  -0.66222
 Alpha  occ. eigenvalues --   -0.61987  -0.49826
 Alpha virt. eigenvalues --   -0.40186  -0.34436  -0.33348  -0.12842  -0.11610
 Alpha virt. eigenvalues --   -0.08008  -0.07481  -0.05631  -0.05056  -0.04660
 Alpha virt. eigenvalues --   -0.01417   0.00308   0.05992   0.23521   0.31249

  Beta  occ. eigenvalues --  -10.94756 -10.94756  -0.96537  -0.96249  -0.64915
  Beta  occ. eigenvalues --   -0.60556
  Beta virt. eigenvalues --   -0.32703  -0.31428  -0.31138  -0.29770  -0.13377
  Beta virt. eigenvalues --   -0.11531  -0.07544  -0.06832  -0.06476  -0.04358
  Beta virt. eigenvalues --   -0.03446  -0.02116   0.02024   0.07340   0.22786

 Mulliken charges and spin densities:
               1          2
     1  C    0.255813   0.516334
     2  C    0.255813   0.516335
     3  H    0.244187  -0.016334
     4  H    0.244187  -0.016334
 Sum of Mulliken charges =   1.00000   1.00000

 Dipole moment (field-independent basis, Debye):
    X=             -0.0000    Y=              0.0000    Z=             -0.0000  Tot=              0.0000
 Quadrupole moment (field-independent basis, Debye-Ang):
   XX=             13.8158   YY=             -9.9867   ZZ=            -11.0831
   XY=              0.0000   XZ=              0.0000   YZ=             -0.8643

 Normal termination of Gaussian 16 at Tue Dec  3 11:28:38 2024.
