 Gaussian 16, Revision A.03,
 Gaussian 16:  ES64L-G16RevA.03 25-Dec-2016

 ---------------------------------------
 #p UM062X/6-311+G** force int=superfine
 ---------------------------------------

 -------------------
 Title Card Required
 -------------------
 Symbolic Z-matrix:
 Charge =  1 Multiplicity = 2

                         Standard orientation:
 ---------------------------------------------------------------------
 Center     Atomic      Atomic             Coordinates (Angstroms)
 Number     Number       Type             X           Y           Z
 ---------------------------------------------------------------------
      1          6           0       -0.609213   -0.072135   -0.000081
      2          6           0        0.609214    0.072134    0.000043
      3          1           0        1.058776    1.063745   -0.000088
      4          1           0       -1.173606    0.591978    0.744552
      5          1           0        1.173655   -0.592138   -0.744379
      6          1           0        1.173654   -0.592140    0.744353
      7          1           0       -1.058777   -1.063744   -0.000043
      8          1           0       -1.173708    0.592309   -0.744168
 ---------------------------------------------------------------------

 SCF Done:  E(UM062X) =  -79.3234447532     A.U. after   10 cycles

 The electronic state is 2-A.
 Alpha  occ. eigenvalues --  -10.81172 -10.80960  -1.21961  -0.99745  -0.84222
 Alpha  occ. eigenvalues --   -0.80863  -0.79629  -0.68284  -0.62267
 Alpha virt. eigenvalues --   -0.16192  -0.14105  -0.13221  -0.12113  -0.08700
 Alpha virt. eigenvalues --   -0.07182  -0.06910  -0.06636  -0.04771  -0.02567
 Alpha virt. eigenvalues --   -0.00981  -0.00702   0.06300   0.06443   0.13500

  Beta  occ. eigenvalues --  -10.81108 -10.80884  -1.20427  -0.95958  -0.83343
  Beta  occ. eigenvalues --   -0.78963  -0.74346  -0.66786
  Beta virt. eigenvalues --   -0.42264  -0.16261  -0.14130  -0.12819  -0.12173
  Beta virt. eigenvalues --   -0.08732  -0.06900  -0.06619  -0.04946  -0.04632
  Beta virt. eigenvalues --   -0.02096  -0.00860  -0.00522   0.06410   0.07000

 Mulliken charges and spin densities:
               1          2
     1  C   -0.397898   0.150703
     2  C   -0.397911   0.150693
     3  H    0.252579  -0.009530
     4  H    0.322690   0.179555
     5  H    0.322682   0.179492
     6  H    0.322644   0.179338
     7  H    0.252580  -0.009530
     8  H    0.322635   0.179278
 Sum of Mulliken charges =   1.00000   1.00000

 Dipole moment (field-independent basis, Debye):
    X=             -0.0000    Y=              0.0000    Z=              0.0004  Tot=              0.0004
 Quadrupole moment (field-independent basis, Debye-Ang):
   XX=             -6.4834   YY=            -10.0383   ZZ=            -11.1662
   XY=             -1.7505   XZ=             -0.0013   YZ=              0.0003

 Normal termination of Gaussian 16 at Tue Nov 19 08:41:04 2024.
