 Gaussian 16, Revision A.03,
 Gaussian 16:  ES64L-G16RevA.03 25-Dec-2016

 --------------------------------------------
 #p opt UM062X/6-311+G** nosymm int=superfine
 --------------------------------------------

 -------------------
 Title Card Required
 -------------------
 Symbolic Z-matrix:
 Charge =  0 Multiplicity = 1

 SCF Done:  E(UM062X) =  -582.406066220     A.U. after   10 cycles
 SCF Done:  E(UM062X) =  -582.408025987     A.U. after    8 cycles
 SCF Done:  E(UM062X) =  -582.408465122     A.U. after    9 cycles
 Optimization completed.
    -- Stationary point found.

                          Input orientation:
 ---------------------------------------------------------------------
 Center     Atomic      Atomic             Coordinates (Angstroms)
 Number     Number       Type             X           Y           Z
 ---------------------------------------------------------------------
      1         14           0       -1.994819    0.000000    0.000000
      2         14           0        1.994819    0.000000    0.000000
      3          1           0        2.412392   -1.415300   -0.000057
      4          1           0       -2.412379   -0.707540    1.225764
      5          1           0        2.412495    0.707713   -1.225625
      6          1           0        2.412387    0.707593    1.225731
      7          1           0       -2.412395    1.415299   -0.000114
      8          1           0       -2.412501   -0.707767   -1.225591
 ---------------------------------------------------------------------

 Alpha  occ. eigenvalues --  -67.01702 -67.01702  -5.56556  -5.56554  -3.87781
 Alpha  occ. eigenvalues --   -3.87781  -3.87567  -3.87567  -3.87567  -3.87567
 Alpha  occ. eigenvalues --   -0.61085  -0.60511  -0.41894  -0.41894  -0.41724
 Alpha  occ. eigenvalues --   -0.41724  -0.23529
 Alpha virt. eigenvalues --   -0.08694   0.02152   0.02914   0.02914   0.03429
 Alpha virt. eigenvalues --    0.05241   0.05241   0.05562   0.07028   0.07306
 Alpha virt. eigenvalues --    0.07306   0.08919   0.08919   0.13139   0.16412

  Beta  occ. eigenvalues --  -67.01702 -67.01702  -5.56556  -5.56554  -3.87781
  Beta  occ. eigenvalues --   -3.87781  -3.87567  -3.87567  -3.87567  -3.87567
  Beta  occ. eigenvalues --   -0.61085  -0.60511  -0.41894  -0.41894  -0.41724
  Beta  occ. eigenvalues --   -0.41724  -0.23529
  Beta virt. eigenvalues --   -0.08694   0.02152   0.02914   0.02914   0.03429
  Beta virt. eigenvalues --    0.05241   0.05241   0.05562   0.07028   0.07306
  Beta virt. eigenvalues --    0.07306   0.08919   0.08919   0.13139   0.16412

 Mulliken charges and spin densities:
               1          2
     1  Si   0.274902   0.000000
     2  Si   0.274903  -0.000000
     3  H   -0.091634   0.000000
     4  H   -0.091634  -0.000000
     5  H   -0.091635   0.000000
     6  H   -0.091634   0.000000
     7  H   -0.091634  -0.000000
     8  H   -0.091635  -0.000000
 Sum of Mulliken charges =  -0.00000   0.00000

 Dipole moment (field-independent basis, Debye):
    X=              0.0000    Y=             -0.0000    Z=              0.0000  Tot=              0.0000
 Quadrupole moment (field-independent basis, Debye-Ang):
   XX=            -28.8334   YY=            -32.0399   ZZ=            -32.0399
   XY=             -0.0001   XZ=              0.0000   YZ=              0.0000

 Normal termination of Gaussian 16 at Mon Apr 21 20:20:31 2025.
