 Gaussian 16, Revision A.03,
 Gaussian 16:  ES64L-G16RevA.03 25-Dec-2016

 --------------------------------
 #p UM062X/6-311+G** Pop=NBO Read
 --------------------------------

 ------------
 NBO Analysis
 ------------
 Symbolic Z-matrix:
 Charge =  0 Multiplicity = 1

                         Standard orientation:
 ---------------------------------------------------------------------
 Center     Atomic      Atomic             Coordinates (Angstroms)
 Number     Number       Type             X           Y           Z
 ---------------------------------------------------------------------
      1          6           0       -0.584458    0.028920   -0.000015
      2          7           0        0.665394   -0.154744   -0.000015
      3          1           0       -1.068567    1.010393   -0.000015
      4          1           0        1.161753    0.738400    0.000111
      5          1           0       -1.244200   -0.839103    0.000095
 ---------------------------------------------------------------------

 SCF Done:  E(UM062X) =  -94.5872844083     A.U. after   10 cycles

 The electronic state is 1-A.
 Alpha  occ. eigenvalues --  -14.76645 -10.60016  -1.01957  -0.71071  -0.57982
 Alpha  occ. eigenvalues --   -0.50208  -0.40262  -0.34064
 Alpha virt. eigenvalues --    0.01189   0.02266   0.04439   0.05682   0.08308
 Alpha virt. eigenvalues --    0.13928   0.16832   0.19005   0.21349   0.24997
 Alpha virt. eigenvalues --    0.26783   0.33746   0.40309   0.70229   0.70440

  Beta  occ. eigenvalues --  -14.76645 -10.60016  -1.01957  -0.71071  -0.57982
  Beta  occ. eigenvalues --   -0.50208  -0.40262  -0.34064
  Beta virt. eigenvalues --    0.01189   0.02266   0.04439   0.05682   0.08308
  Beta virt. eigenvalues --    0.13928   0.16832   0.19005   0.21349   0.24997
  Beta virt. eigenvalues --    0.26783   0.33746   0.40309   0.70229   0.70440

 Mulliken charges and spin densities:
               1          2
     1  C   -0.192431   0.000000
     2  N   -0.255549  -0.000000
     3  H    0.113876   0.000000
     4  H    0.200972  -0.000000
     5  H    0.133133  -0.000000
 Sum of Mulliken charges =   0.00000   0.00000

 Dipole moment (field-independent basis, Debye):
    X=             -1.3163    Y=              1.7599    Z=              0.0002  Tot=              2.1977
 Quadrupole moment (field-independent basis, Debye-Ang):
   XX=            -12.2448   YY=            -12.4293   ZZ=            -13.7930
   XY=              2.2686   XZ=              0.0001   YZ=              0.0001

 Summary of Natural Population Analysis:

                                       Natural Population
                Natural  -----------------------------------------------
    Atom  No    Charge         Core      Valence    Rydberg      Total
 -----------------------------------------------------------------------
      C    1   -0.05755      0.99980     2.04523    0.01252     3.05755
      N    2   -0.31916      0.99976     2.80734    0.01206     3.81916
      H    3    0.08892      0.00000     0.40988    0.00120     0.41108
      H    4    0.18658      0.00000     0.31143    0.00199     0.31342
      H    5    0.10122      0.00000     0.39800    0.00078     0.39878
 =======================================================================
   * Total *   -0.00000      1.99956     5.97189    0.02855     8.00000

 Normal termination of Gaussian 16 at Wed Apr 16 02:19:06 2025.
