 Gaussian 16, Revision A.03,
 Gaussian 16:  ES64L-G16RevA.03 25-Dec-2016

 --------------------------------------------
 #p opt UM062X/6-311+G** nosymm int=superfine
 --------------------------------------------

 -------------------
 Title Card Required
 -------------------
 Symbolic Z-matrix:
 Charge =  0 Multiplicity = 1

 SCF Done:  E(UM062X) =  -77.2136298291     A.U. after    9 cycles
 SCF Done:  E(UM062X) =  -77.2482389322     A.U. after    9 cycles
 SCF Done:  E(UM062X) =  -77.2490626343     A.U. after    8 cycles
 SCF Done:  E(UM062X) =  -77.2490634207     A.U. after    6 cycles
 Optimization completed.
    -- Stationary point found.

                          Input orientation:
 ---------------------------------------------------------------------
 Center     Atomic      Atomic             Coordinates (Angstroms)
 Number     Number       Type             X           Y           Z
 ---------------------------------------------------------------------
      1          6           0       -0.520708    0.000000    0.000000
      2          6           0        0.520708    0.000000    0.000000
      3          1           0       -1.582018    0.000000   -0.000000
      4          1           0        1.582018   -0.000000    0.000000
 ---------------------------------------------------------------------

 Alpha  occ. eigenvalues --  -10.50414 -10.49459  -0.88489  -0.62440  -0.56705
 Alpha  occ. eigenvalues --   -0.38896  -0.38896
 Alpha virt. eigenvalues --    0.02769   0.03232   0.06720   0.06720   0.07304
 Alpha virt. eigenvalues --    0.07304   0.09395   0.16622   0.18552   0.18552
 Alpha virt. eigenvalues --    0.21405   0.24871   0.44146   0.44336   0.54871

  Beta  occ. eigenvalues --  -10.50414 -10.49459  -0.88489  -0.62440  -0.56705
  Beta  occ. eigenvalues --   -0.38896  -0.38896
  Beta virt. eigenvalues --    0.02769   0.03232   0.06720   0.06720   0.07304
  Beta virt. eigenvalues --    0.07304   0.09395   0.16622   0.18552   0.18552
  Beta virt. eigenvalues --    0.21405   0.24871   0.44146   0.44336   0.54871

 Mulliken charges and spin densities:
               1          2
     1  C   -0.142695  -0.000000
     2  C   -0.142695   0.000000
     3  H    0.142695  -0.000000
     4  H    0.142695   0.000000
 Sum of Mulliken charges =  -0.00000  -0.00000

 Dipole moment (field-independent basis, Debye):
    X=             -0.0000    Y=              0.0000    Z=             -0.0000  Tot=              0.0000
 Quadrupole moment (field-independent basis, Debye-Ang):
   XX=             -7.3666   YY=            -12.9913   ZZ=            -12.9913
   XY=             -0.0000   XZ=              0.0000   YZ=              0.0000

 Normal termination of Gaussian 16 at Tue Dec  3 20:00:23 2024.
