 Gaussian 16, Revision A.03,
 Gaussian 16:  ES64L-G16RevA.03 25-Dec-2016

 --------------------------------------------
 #p opt UM062X/6-311+G** nosymm int=superfine
 --------------------------------------------

 -------------------
 Title Card Required
 -------------------
 Symbolic Z-matrix:
 Charge =  0 Multiplicity = 1

 SCF Done:  E(UM062X) =  -80.4295690263     A.U. after   20 cycles

 Alpha  occ. eigenvalues --  -14.79799  -7.16503  -0.86280  -0.57916  -0.43161
 Alpha  occ. eigenvalues --   -0.31190  -0.30564
 Alpha virt. eigenvalues --   -0.09588  -0.06691  -0.06475   0.01307   0.04279
 Alpha virt. eigenvalues --    0.05486   0.05510   0.11408   0.15106   0.16523
 Alpha virt. eigenvalues --    0.17374   0.20837   0.24711   0.35510   0.39839

  Beta  occ. eigenvalues --  -14.79799  -7.16503  -0.86280  -0.57916  -0.43161
  Beta  occ. eigenvalues --   -0.31190  -0.30564
  Beta virt. eigenvalues --   -0.09588  -0.06691  -0.06475   0.01307   0.04279
  Beta virt. eigenvalues --    0.05486   0.05510   0.11408   0.15106   0.16523
  Beta virt. eigenvalues --    0.17374   0.20837   0.24711   0.35510   0.39839

 Mulliken charges and spin densities:
               1          2
     1  B    0.034421   0.000000
     2  N   -0.248940   0.000000
     3  H    0.023214   0.000000
     4  H    0.191306  -0.000000
 Sum of Mulliken charges =  -0.00000   0.00000

 Dipole moment (field-independent basis, Debye):
    X=             -3.3449    Y=              0.6908    Z=              0.9089  Tot=              3.5344
 Quadrupole moment (field-independent basis, Debye-Ang):
   XX=             -9.9033   YY=            -14.1921   ZZ=            -13.5040
   XY=              1.7532   XZ=              2.2998   YZ=              1.2472

 Optimization completed.
    -- Stationary point found.

                          Input orientation:
 ---------------------------------------------------------------------
 Center     Atomic      Atomic             Coordinates (Angstroms)
 Number     Number       Type             X           Y           Z
 ---------------------------------------------------------------------
      1          5           0       -1.592353   -0.000816    0.000000
      2          7           0        1.591939    0.000343    0.000000
      3          1           0       -2.766675   -0.200594   -0.262288
      4          1           0        1.390802    0.615916    0.809001
 ---------------------------------------------------------------------

 Normal termination of Gaussian 16 at Mon Apr 21 20:59:57 2025.
