 Gaussian 16, Revision A.03,
 Gaussian 16:  ES64L-G16RevA.03 25-Dec-2016

 --------------------------------------------
 #p opt UM062X/6-311+G** nosymm int=superfine
 --------------------------------------------

 -------------------
 Title Card Required
 -------------------
 Symbolic Z-matrix:
 Charge =  0 Multiplicity = 1

 SCF Done:  E(UM062X) =  -683.707495298     A.U. after   10 cycles
 SCF Done:  E(UM062X) =  -683.708704952     A.U. after   10 cycles
 SCF Done:  E(UM062X) =  -683.708839993     A.U. after   10 cycles
 Optimization completed.
    -- Stationary point found.

                          Input orientation:
 ---------------------------------------------------------------------
 Center     Atomic      Atomic             Coordinates (Angstroms)
 Number     Number       Type             X           Y           Z
 ---------------------------------------------------------------------
      1         15           0       -1.509490    0.000000    0.000000
      2         15           0        1.509490    0.000000    0.000000
      3          1           0       -1.456560   -1.421119   -0.000000
      4          1           0        1.456560    1.421119   -0.000000
 ---------------------------------------------------------------------

 Alpha  occ. eigenvalues --  -78.08036 -78.08036  -6.89990  -6.89989  -5.01426
 Alpha  occ. eigenvalues --   -5.01426  -5.01391  -5.01390  -5.01216  -5.01216
 Alpha  occ. eigenvalues --   -0.69913  -0.66509  -0.40809  -0.39851  -0.29807
 Alpha  occ. eigenvalues --   -0.26252
 Alpha virt. eigenvalues --   -0.14341  -0.09049   0.01941   0.03269   0.03822
 Alpha virt. eigenvalues --    0.04665   0.05046   0.06040   0.06696   0.08623
 Alpha virt. eigenvalues --    0.08911   0.12462   0.27878   0.29559   0.30554

  Beta  occ. eigenvalues --  -78.08036 -78.08036  -6.89990  -6.89989  -5.01426
  Beta  occ. eigenvalues --   -5.01426  -5.01391  -5.01390  -5.01216  -5.01216
  Beta  occ. eigenvalues --   -0.69913  -0.66509  -0.40809  -0.39851  -0.29807
  Beta  occ. eigenvalues --   -0.26252
  Beta virt. eigenvalues --   -0.14341  -0.09049   0.01941   0.03269   0.03822
  Beta virt. eigenvalues --    0.04665   0.05046   0.06040   0.06696   0.08623
  Beta virt. eigenvalues --    0.08911   0.12462   0.27878   0.29559   0.30554

 Mulliken charges and spin densities:
               1          2
     1  P    0.006073  -0.000000
     2  P    0.006073   0.000000
     3  H   -0.006073   0.000000
     4  H   -0.006073  -0.000000
 Sum of Mulliken charges =  -0.00000   0.00000

 Dipole moment (field-independent basis, Debye):
    X=              0.0000    Y=              0.0000    Z=             -0.0000  Tot=              0.0000
 Quadrupole moment (field-independent basis, Debye-Ang):
   XX=            -27.6532   YY=            -28.1696   ZZ=            -30.5452
   XY=              2.7252   XZ=             -0.0000   YZ=             -0.0000

 Normal termination of Gaussian 16 at Mon Apr 21 21:11:38 2025.
