 Gaussian 16, Revision A.03,
 Gaussian 16:  ES64L-G16RevA.03 25-Dec-2016

 ---------------------------------------------------
 #p UM062X/6-311+G** force int=superfine pop=saveNBO
 ---------------------------------------------------

 -------------------
 Title Card Required
 -------------------
 Symbolic Z-matrix:
 Charge =  0 Multiplicity = 1

                         Standard orientation:
 ---------------------------------------------------------------------
 Center     Atomic      Atomic             Coordinates (Angstroms)
 Number     Number       Type             X           Y           Z
 ---------------------------------------------------------------------
      1         16           0        0.000000    0.000000    1.325200
      2         16           0        0.000000    0.000000   -1.325200
 ---------------------------------------------------------------------

 SCF Done:  E(UM062X) =  -796.187714908     A.U. after    9 cycles

 Unable to determine electronic state:  partially filled degenerate orbitals.
 Alpha  occ. eigenvalues --  -89.98878 -89.98878  -8.34557  -8.34554  -6.26605
 Alpha  occ. eigenvalues --   -6.26605  -6.26571  -6.26570  -6.25751  -6.25751
 Alpha  occ. eigenvalues --   -0.81362  -0.75075  -0.39365  -0.36683  -0.34625
 Alpha  occ. eigenvalues --   -0.32493
 Alpha virt. eigenvalues --   -0.20521  -0.13470   0.03150   0.03953   0.04934
 Alpha virt. eigenvalues --    0.05554   0.07413   0.07432   0.07949   0.14120
 Alpha virt. eigenvalues --    0.31372   0.32214   0.33252   0.36047   0.36916

  Beta  occ. eigenvalues --  -89.98878 -89.98878  -8.34557  -8.34554  -6.26605
  Beta  occ. eigenvalues --   -6.26605  -6.26571  -6.26570  -6.25751  -6.25751
  Beta  occ. eigenvalues --   -0.81362  -0.75075  -0.39365  -0.36683  -0.34625
  Beta  occ. eigenvalues --   -0.32493
  Beta virt. eigenvalues --   -0.20521  -0.13470   0.03150   0.03953   0.04934
  Beta virt. eigenvalues --    0.05554   0.07413   0.07432   0.07949   0.14120
  Beta virt. eigenvalues --    0.31372   0.32214   0.33252   0.36047   0.36916

 Mulliken charges and spin densities:
               1          2
     1  S   -0.000000   0.000000
     2  S   -0.000000   0.000000
 Sum of Mulliken charges =  -0.00000   0.00000

 Dipole moment (field-independent basis, Debye):
    X=             -0.0000    Y=             -0.0000    Z=             -0.0000  Tot=              0.0000
 Quadrupole moment (field-independent basis, Debye-Ang):
   XX=            -29.9922   YY=            -25.0986   ZZ=            -23.3562
   XY=              0.0000   XZ=             -0.0000   YZ=              0.0000

 Summary of Natural Population Analysis:

                                       Natural Population
                Natural  -----------------------------------------------
    Atom  No    Charge         Core      Valence    Rydberg      Total
 -----------------------------------------------------------------------
      S    1   -0.00000      4.99998     2.99737    0.00265     8.00000
      S    2   -0.00000      4.99998     2.99737    0.00265     8.00000
 =======================================================================
   * Total *   -0.00000      9.99997     5.99473    0.00530    16.00000

 Normal termination of Gaussian 16 at Mon Apr 21 20:07:58 2025.
