 Gaussian 16, Revision A.03,
 Gaussian 16:  ES64L-G16RevA.03 25-Dec-2016

 ---------------------------------------------------
 #p UM062X/6-311+G** force int=superfine pop=saveNBO
 ---------------------------------------------------

 -------------------
 Title Card Required
 -------------------
 Symbolic Z-matrix:
 Charge =  0 Multiplicity = 1

                         Standard orientation:
 ---------------------------------------------------------------------
 Center     Atomic      Atomic             Coordinates (Angstroms)
 Number     Number       Type             X           Y           Z
 ---------------------------------------------------------------------
      1          8           0        0.000000    0.000000    1.418562
      2          8           0        0.000000    0.000000   -1.418562
 ---------------------------------------------------------------------

 SCF Done:  E(UM062X) =  -149.829027540     A.U. after   10 cycles

 Unable to determine electronic state:  partially filled degenerate orbitals.
 Alpha  occ. eigenvalues --  -19.83140 -19.83136  -1.10887  -1.09807  -0.49055
 Alpha  occ. eigenvalues --   -0.48401  -0.42496  -0.40869
 Alpha virt. eigenvalues --   -0.30322  -0.28387   0.09851   0.12688   0.14554
 Alpha virt. eigenvalues --    0.14599   0.19875   0.20144   0.20487   0.29888
 Alpha virt. eigenvalues --    0.93929   0.99232   1.00433   1.02142   1.03466

  Beta  occ. eigenvalues --  -19.83140 -19.83136  -1.10887  -1.09807  -0.49055
  Beta  occ. eigenvalues --   -0.48401  -0.42496  -0.40869
  Beta virt. eigenvalues --   -0.30322  -0.28387   0.09851   0.12688   0.14554
  Beta virt. eigenvalues --    0.14599   0.19875   0.20144   0.20487   0.29888
  Beta virt. eigenvalues --    0.93929   0.99232   1.00433   1.02142   1.03466

 Mulliken charges and spin densities:
               1          2
     1  O    0.000000  -0.000000
     2  O    0.000000  -0.000000
 Sum of Mulliken charges =   0.00000  -0.00000

 Dipole moment (field-independent basis, Debye):
    X=              0.0000    Y=             -0.0000    Z=             -0.0000  Tot=              0.0000
 Quadrupole moment (field-independent basis, Debye-Ang):
   XX=            -10.1926   YY=            -12.0092   ZZ=             -9.1221
   XY=              0.0000   XZ=             -0.0000   YZ=              0.0000

 Summary of Natural Population Analysis:

                                       Natural Population
                Natural  -----------------------------------------------
    Atom  No    Charge         Core      Valence    Rydberg      Total
 -----------------------------------------------------------------------
      O    1    0.00000      1.00000     2.99902    0.00098     4.00000
      O    2    0.00000      1.00000     2.99902    0.00098     4.00000
 =======================================================================
   * Total *    0.00000      2.00000     5.99805    0.00196     8.00000

 Normal termination of Gaussian 16 at Mon Apr 21 19:54:09 2025.
