 Gaussian 16, Revision A.03,
 Gaussian 16:  ES64L-G16RevA.03 25-Dec-2016

 --------------------------------------------
 #p opt UM062X/6-311+G** nosymm int=superfine
 --------------------------------------------

 -------------------
 Title Card Required
 -------------------
 Symbolic Z-matrix:
 Charge =  0 Multiplicity = 1

 SCF Done:  E(UM062X) =  -76.8074856798     A.U. after   10 cycles
 SCF Done:  E(UM062X) =  -76.9347617418     A.U. after    9 cycles
 SCF Done:  E(UM062X) =  -76.9703248016     A.U. after   10 cycles
 SCF Done:  E(UM062X) =  -76.9779555417     A.U. after    9 cycles
 SCF Done:  E(UM062X) =  -76.9779575860     A.U. after    7 cycles
 Optimization completed.
    -- Stationary point found.

                          Input orientation:
 ---------------------------------------------------------------------
 Center     Atomic      Atomic             Coordinates (Angstroms)
 Number     Number       Type             X           Y           Z
 ---------------------------------------------------------------------
      1          6           0       -0.448887    0.000000    0.000000
      2          6           0        0.448887    0.000000    0.000000
      3          1           0       -1.507161    0.000000    0.000000
      4          1           0        1.507161    0.000000   -0.000000
 ---------------------------------------------------------------------

 Alpha  occ. eigenvalues --  -10.48241 -10.44980  -0.89491  -0.60009  -0.55912
 Alpha  occ. eigenvalues --   -0.42832  -0.42832
 Alpha virt. eigenvalues --    0.02903   0.03564   0.06989   0.06989   0.07892
 Alpha virt. eigenvalues --    0.07892   0.09652   0.16982   0.22734   0.23051
 Alpha virt. eigenvalues --    0.23051   0.25141   0.44040   0.47853   0.52727

  Beta  occ. eigenvalues --  -10.48241 -10.44980  -0.89491  -0.60009  -0.55912
  Beta  occ. eigenvalues --   -0.42832  -0.42832
  Beta virt. eigenvalues --    0.02903   0.03564   0.06989   0.06989   0.07892
  Beta virt. eigenvalues --    0.07892   0.09652   0.16982   0.22734   0.23051
  Beta virt. eigenvalues --    0.23051   0.25141   0.44040   0.47853   0.52727

 Mulliken charges and spin densities:
               1          2
     1  C   -0.111851  -0.000000
     2  C   -0.111851   0.000000
     3  H    0.111851  -0.000000
     4  H    0.111851  -0.000000
 Sum of Mulliken charges =  -0.00000  -0.00000

 Dipole moment (field-independent basis, Debye):
    X=             -0.0000    Y=              0.0000    Z=              0.0000  Tot=              0.0000
 Quadrupole moment (field-independent basis, Debye-Ang):
   XX=             -7.7559   YY=            -12.1738   ZZ=            -12.1738
   XY=              0.0000   XZ=             -0.0000   YZ=              0.0000

 Normal termination of Gaussian 16 at Tue Dec  3 19:56:41 2024.
