 Gaussian 16, Revision A.03,
 Gaussian 16:  ES64L-G16RevA.03 25-Dec-2016

 --------------------------------------------
 #p opt UM062X/6-311+G** nosymm int=superfine
 --------------------------------------------

 -------------------
 Title Card Required
 -------------------
 Symbolic Z-matrix:
 Charge =  1 Multiplicity = 2

 SCF Done:  E(UM062X) =  -79.2204320203     A.U. after   26 cycles
 SCF Done:  E(UM062X) =  -79.2824892775     A.U. after   18 cycles
 SCF Done:  E(UM062X) =  -79.3415378595     A.U. after   15 cycles
 SCF Done:  E(UM062X) =  -79.3661621157     A.U. after   13 cycles
 SCF Done:  E(UM062X) =  -79.3671619202     A.U. after   11 cycles
 SCF Done:  E(UM062X) =  -79.3673151611     A.U. after   11 cycles
 SCF Done:  E(UM062X) =  -79.3674671163     A.U. after   11 cycles
 SCF Done:  E(UM062X) =  -79.3675440634     A.U. after   11 cycles
 SCF Done:  E(UM062X) =  -79.3675786254     A.U. after   11 cycles
 SCF Done:  E(UM062X) =  -79.3676186254     A.U. after   11 cycles
 SCF Done:  E(UM062X) =  -79.3676487076     A.U. after   11 cycles
 SCF Done:  E(UM062X) =  -79.3676526201     A.U. after   10 cycles
 SCF Done:  E(UM062X) =  -79.3676531346     A.U. after   10 cycles
 SCF Done:  E(UM062X) =  -79.3676532435     A.U. after    9 cycles
 Optimization completed.
    -- Stationary point found.

                          Input orientation:
 ---------------------------------------------------------------------
 Center     Atomic      Atomic             Coordinates (Angstroms)
 Number     Number       Type             X           Y           Z
 ---------------------------------------------------------------------
      1          6           0       -0.713336    0.000000    0.000000
      2          6           0        0.713336    0.000000    0.000000
      3          1           0        1.234423   -0.823944    0.476683
      4          1           0       -1.145777   -1.013278   -0.299076
      5          1           0        1.145789    1.013284    0.299062
      6          1           0        1.145583    0.245724   -1.027633
      7          1           0       -1.234414    0.823947   -0.476688
      8          1           0       -1.145566   -0.245687    1.027644
 ---------------------------------------------------------------------

 Alpha  occ. eigenvalues --  -10.82685 -10.82624  -1.16609  -1.00256  -0.81728
 Alpha  occ. eigenvalues --   -0.77116  -0.76087  -0.70534  -0.65072
 Alpha virt. eigenvalues --   -0.16166  -0.13441  -0.11780  -0.11768  -0.08357
 Alpha virt. eigenvalues --   -0.07330  -0.06790  -0.06543  -0.05595  -0.02044
 Alpha virt. eigenvalues --   -0.01055  -0.00597   0.05846   0.06276   0.07678

  Beta  occ. eigenvalues --  -10.82587 -10.82518  -1.14645  -0.96571  -0.80630
  Beta  occ. eigenvalues --   -0.74268  -0.70981  -0.69191
  Beta virt. eigenvalues --   -0.45135  -0.16160  -0.13500  -0.11753  -0.11580
  Beta virt. eigenvalues --   -0.08369  -0.06990  -0.06819  -0.05381  -0.04831
  Beta virt. eigenvalues --   -0.01829  -0.00796  -0.00439   0.05971   0.06644

 Mulliken charges and spin densities:
               1          2
     1  C   -0.410457   0.177645
     2  C   -0.410427   0.177680
     3  H    0.258809  -0.010722
     4  H    0.325813   0.166486
     5  H    0.325815   0.166497
     6  H    0.325822   0.166570
     7  H    0.258805  -0.010720
     8  H    0.325820   0.166564
 Sum of Mulliken charges =   1.00000   1.00000

 Dipole moment (field-independent basis, Debye):
    X=              0.0002    Y=              0.0001    Z=             -0.0000  Tot=              0.0002
 Quadrupole moment (field-independent basis, Debye-Ang):
   XX=             -6.4327   YY=            -10.0512   ZZ=            -10.8453
   XY=              1.8031   XZ=             -1.0434   YZ=             -0.6916

 Normal termination of Gaussian 16 at Sat Nov 16 15:48:06 2024.
