 Gaussian 16, Revision A.03,
 Gaussian 16:  ES64L-G16RevA.03 25-Dec-2016

 --------------------------------------------
 #p opt UM062X/6-311+G** nosymm int=superfine
 --------------------------------------------

 -------------------
 Title Card Required
 -------------------
 Symbolic Z-matrix:
 Charge =  0 Multiplicity = 3

 SCF Done:  E(UM062X) =  -50.6278639974     A.U. after    9 cycles
 SCF Done:  E(UM062X) =  -50.6278755813     A.U. after    7 cycles
 Optimization completed.
    -- Stationary point found.

                          Input orientation:
 ---------------------------------------------------------------------
 Center     Atomic      Atomic             Coordinates (Angstroms)
 Number     Number       Type             X           Y           Z
 ---------------------------------------------------------------------
      1          5           0       -1.078410    0.000000    0.000000
      2          5           0        1.078410    0.000000    0.000000
      3          1           0       -2.254484   -0.000080    0.000000
      4          1           0        2.254484    0.000080   -0.000000
 ---------------------------------------------------------------------

 Alpha  occ. eigenvalues --   -7.13756  -7.13737  -0.58592  -0.55275  -0.40263
 Alpha  occ. eigenvalues --   -0.23428  -0.23428
 Alpha virt. eigenvalues --   -0.04506  -0.04506  -0.00836   0.02503   0.03044
 Alpha virt. eigenvalues --    0.06273   0.06273   0.07443   0.07740   0.07740
 Alpha virt. eigenvalues --    0.13582   0.21855   0.25601   0.37855   0.39265

  Beta  occ. eigenvalues --   -7.13499  -7.13488  -0.54789  -0.53346  -0.38242
  Beta virt. eigenvalues --   -0.06420  -0.06420   0.00049   0.00049   0.00741
  Beta virt. eigenvalues --    0.02809   0.04591   0.05422   0.08889   0.08889
  Beta virt. eigenvalues --    0.11794   0.11794   0.13116   0.22940   0.28239

 Mulliken charges and spin densities:
               1          2
     1  B   -0.108028   1.036300
     2  B   -0.108028   1.036300
     3  H    0.108028  -0.036300
     4  H    0.108028  -0.036300
 Sum of Mulliken charges =  -0.00000   2.00000

 Dipole moment (field-independent basis, Debye):
    X=             -0.0000    Y=              0.0000    Z=             -0.0000  Tot=              0.0000
 Quadrupole moment (field-independent basis, Debye-Ang):
   XX=            -10.8506   YY=            -16.0459   ZZ=            -16.0459
   XY=              0.0002   XZ=             -0.0000   YZ=             -0.0000

 1\1\GINC-NODE06\FOpt\UM062X\6-311+G(d,p)\B2H2(3)\SZHAO\21-Apr-2025\0\\
 #p opt UM062X/6-311+G** nosymm int=superfine\\Title Card Required\\0,3
 \B,-1.07841047,0.,0.\B,1.07841047,0.,0.\H,-2.2544841293,-0.0000804734,
 0.0000000255\H,2.2544841293,0.0000804734,-0.0000000255\\Version=ES64L-
 G16RevA.03\HF=-50.6278756\S2=2.008537\S2-1=0.\S2A=2.000023\RMSD=6.956e
 -09\RMSF=1.893e-05\Dipole=0.,0.,0.\Quadrupole=2.5750445,-1.2875223,-1.
 2875223,0.000142,0.,0.\PG=C*V [C*(H1B1B1H1)]\\@

 Normal termination of Gaussian 16 at Mon Apr 21 17:27:50 2025.
