 Gaussian 16, Revision A.03,
 Gaussian 16:  ES64L-G16RevA.03 25-Dec-2016

 --------------------------------------------
 #p opt UM062X/6-311+G** nosymm int=superfine
 --------------------------------------------

 -------------------
 Title Card Required
 -------------------
 Symbolic Z-matrix:
 Charge =  0 Multiplicity = 1

 SCF Done:  E(UM062X) =  -111.610212303     A.U. after   17 cycles
 SCF Done:  E(UM062X) =  -111.613897132     A.U. after   17 cycles
 SCF Done:  E(UM062X) =  -111.615958011     A.U. after   18 cycles
 SCF Done:  E(UM062X) =  -111.617382897     A.U. after   18 cycles
 SCF Done:  E(UM062X) =  -111.618920851     A.U. after   17 cycles
 SCF Done:  E(UM062X) =  -111.620138443     A.U. after   15 cycles
 SCF Done:  E(UM062X) =  -111.620854860     A.U. after   15 cycles
 SCF Done:  E(UM062X) =  -111.621146344     A.U. after   14 cycles
 SCF Done:  E(UM062X) =  -111.621419774     A.U. after   15 cycles
 SCF Done:  E(UM062X) =  -111.621654805     A.U. after   18 cycles
 SCF Done:  E(UM062X) =  -111.621750801     A.U. after   15 cycles
 SCF Done:  E(UM062X) =  -111.621775381     A.U. after   14 cycles
 SCF Done:  E(UM062X) =  -111.621793930     A.U. after   13 cycles
 SCF Done:  E(UM062X) =  -111.621821595     A.U. after   15 cycles
 SCF Done:  E(UM062X) =  -111.621829705     A.U. after   12 cycles
 SCF Done:  E(UM062X) =  -111.621851753     A.U. after   12 cycles
 SCF Done:  E(UM062X) =  -111.621873576     A.U. after   14 cycles
 SCF Done:  E(UM062X) =  -111.621873699     A.U. after   11 cycles
 Optimization completed.
    -- Stationary point found.

                          Input orientation:
 ---------------------------------------------------------------------
 Center     Atomic      Atomic             Coordinates (Angstroms)
 Number     Number       Type             X           Y           Z
 ---------------------------------------------------------------------
      1          7           0       -2.011540    0.000000    0.000000
      2          7           0        2.011540    0.000000    0.000000
      3          1           0       -1.891189   -0.810495   -0.620325
      4          1           0        1.891541    0.401575   -0.938365
      5          1           0       -1.889907   -0.402291    0.937849
      6          1           0        1.890310    0.811007    0.619489
 ---------------------------------------------------------------------

 Alpha  occ. eigenvalues --  -14.80479 -14.80478  -0.95197  -0.95000  -0.55349
 Alpha  occ. eigenvalues --   -0.55259  -0.40753  -0.40609  -0.27929
 Alpha virt. eigenvalues --   -0.19181   0.04066   0.05917   0.08839   0.11572
 Alpha virt. eigenvalues --    0.12173   0.13175   0.15299   0.16482   0.17749
 Alpha virt. eigenvalues --    0.18565   0.22786   0.29248   0.50988   0.51777

  Beta  occ. eigenvalues --  -14.80479 -14.80478  -0.95197  -0.95000  -0.55349
  Beta  occ. eigenvalues --   -0.55259  -0.40753  -0.40609  -0.27929
  Beta virt. eigenvalues --   -0.19181   0.04066   0.05917   0.08839   0.11572
  Beta virt. eigenvalues --    0.12173   0.13175   0.15299   0.16482   0.17749
  Beta virt. eigenvalues --    0.18565   0.22786   0.29248   0.50988   0.51777

 Mulliken charges and spin densities:
               1          2
     1  N   -0.477960   0.000000
     2  N   -0.478052  -0.000000
     3  H    0.238996  -0.000000
     4  H    0.239000   0.000000
     5  H    0.239006  -0.000000
     6  H    0.239009   0.000000
 Sum of Mulliken charges =  -0.00000  -0.00000

 Dipole moment (field-independent basis, Debye):
    X=              0.0009    Y=             -0.0004    Z=             -0.0020  Tot=              0.0022
 Quadrupole moment (field-independent basis, Debye-Ang):
   XX=            -17.1709   YY=            -14.3797   ZZ=            -11.5375
   XY=              8.2865   XZ=             -2.1743   YZ=              0.8009

 Normal termination of Gaussian 16 at Thu May 15 15:16:37 2025.
