 Gaussian 16, Revision A.03,
 Gaussian 16:  ES64L-G16RevA.03 25-Dec-2016

 --------------------------------------------
 #p opt UM062X/6-311+G** nosymm int=superfine
 --------------------------------------------

 -------------------
 Title Card Required
 -------------------
 Symbolic Z-matrix:
 Charge =  0 Multiplicity = 1

 SCF Done:  E(UM062X) =  -78.2014160302     A.U. after    9 cycles
 SCF Done:  E(UM062X) =  -78.2182665263     A.U. after    9 cycles
 SCF Done:  E(UM062X) =  -78.2334774547     A.U. after    8 cycles
 SCF Done:  E(UM062X) =  -78.2338124807     A.U. after    8 cycles
 SCF Done:  E(UM062X) =  -78.2338138404     A.U. after    7 cycles
 Optimization completed.
    -- Stationary point found.

                          Input orientation:
 ---------------------------------------------------------------------
 Center     Atomic      Atomic             Coordinates (Angstroms)
 Number     Number       Type             X           Y           Z
 ---------------------------------------------------------------------
      1          6           0       -2.085595    0.000000    0.000000
      2          6           0        2.085595    0.000000    0.000000
      3          1           0       -2.790749   -0.858751   -0.000000
      4          1           0       -2.790718    0.858777    0.000000
      5          1           0        2.790749    0.858751   -0.000000
      6          1           0        2.790718   -0.858777   -0.000000
 ---------------------------------------------------------------------

 Alpha  occ. eigenvalues --  -10.59577 -10.59577  -0.74562  -0.74534  -0.46292
 Alpha  occ. eigenvalues --   -0.46265  -0.30689  -0.29385
 Alpha virt. eigenvalues --   -0.07279  -0.06916   0.02513   0.03098   0.06550
 Alpha virt. eigenvalues --    0.08608   0.08615   0.10370   0.12110   0.15486
 Alpha virt. eigenvalues --    0.17511   0.19945   0.20683   0.21431   0.45434

  Beta  occ. eigenvalues --  -10.59577 -10.59577  -0.74562  -0.74534  -0.46292
  Beta  occ. eigenvalues --   -0.46265  -0.30689  -0.29385
  Beta virt. eigenvalues --   -0.07279  -0.06916   0.02513   0.03098   0.06550
  Beta virt. eigenvalues --    0.08608   0.08615   0.10370   0.12110   0.15486
  Beta virt. eigenvalues --    0.17511   0.19945   0.20683   0.21431   0.45434

 Mulliken charges and spin densities:
               1          2
     1  C   -0.239451   0.000000
     2  C   -0.239451   0.000000
     3  H    0.119726  -0.000000
     4  H    0.119725  -0.000000
     5  H    0.119726  -0.000000
     6  H    0.119725  -0.000000
 Sum of Mulliken charges =  -0.00000   0.00000

 Dipole moment (field-independent basis, Debye):
    X=             -0.0000    Y=              0.0000    Z=             -0.0000  Tot=              0.0000
 Quadrupole moment (field-independent basis, Debye-Ang):
   XX=             -2.3127   YY=            -14.6254   ZZ=            -12.9166
   XY=             -0.0001   XZ=             -0.0000   YZ=              0.0000

 Normal termination of Gaussian 16 at Tue Dec  3 11:20:02 2024.
