 Gaussian 16, Revision A.03,
 Gaussian 16:  ES64L-G16RevA.03 25-Dec-2016

 ---------------------------------------------------
 #p UM062X/6-311+G** force int=superfine pop=saveNBO
 ---------------------------------------------------

 -------------------
 Title Card Required
 -------------------
 Symbolic Z-matrix:
 Charge =  0 Multiplicity = 1

                         Standard orientation:
 ---------------------------------------------------------------------
 Center     Atomic      Atomic             Coordinates (Angstroms)
 Number     Number       Type             X           Y           Z
 ---------------------------------------------------------------------
      1          8           0        0.000000    0.000000   -2.860091
      2         16           0        0.000000    0.000000    1.430045
 ---------------------------------------------------------------------

 SCF Done:  E(UM062X) =  -473.003380323     A.U. after   17 cycles

 Unable to determine electronic state:  partially filled degenerate orbitals.
 Alpha  occ. eigenvalues --  -89.96781 -19.77162  -8.32840  -6.25639  -6.24041
 Alpha  occ. eigenvalues --   -6.24029  -1.06852  -0.76930  -0.45741  -0.45730
 Alpha  occ. eigenvalues --   -0.34187  -0.34116
 Alpha virt. eigenvalues --   -0.19754  -0.19347   0.03586   0.04800   0.05646
 Alpha virt. eigenvalues --    0.05694   0.14258   0.17556   0.17700   0.21386
 Alpha virt. eigenvalues --    0.33877   0.35076   0.35787   0.59180   0.77705

  Beta  occ. eigenvalues --  -89.96781 -19.77162  -8.32840  -6.25639  -6.24041
  Beta  occ. eigenvalues --   -6.24029  -1.06852  -0.76930  -0.45741  -0.45730
  Beta  occ. eigenvalues --   -0.34187  -0.34116
  Beta virt. eigenvalues --   -0.19754  -0.19347   0.03586   0.04800   0.05646
  Beta virt. eigenvalues --    0.05694   0.14258   0.17556   0.17700   0.21386
  Beta virt. eigenvalues --    0.33877   0.35076   0.35787   0.59180   0.77705

 Mulliken charges and spin densities:
               1          2
     1  O   -0.005206   0.000000
     2  S    0.005206   0.000000
 Sum of Mulliken charges =   0.00000   0.00000

 Dipole moment (field-independent basis, Debye):
    X=              0.0000    Y=              0.0000    Z=              0.1773  Tot=              0.1773
 Quadrupole moment (field-independent basis, Debye-Ang):
   XX=            -15.6839   YY=            -21.1551   ZZ=            -18.9970
   XY=              0.0000   XZ=              0.0000   YZ=              0.0000

 Summary of Natural Population Analysis:

                                       Natural Population
                Natural  -----------------------------------------------
    Atom  No    Charge         Core      Valence    Rydberg      Total
 -----------------------------------------------------------------------
      O    1   -0.00301      1.00000     3.00288    0.00013     4.00301
      S    2    0.00301      4.99999     2.99656    0.00044     7.99699
 =======================================================================
   * Total *   -0.00000      5.99999     5.99944    0.00057    12.00000

 Normal termination of Gaussian 16 at Mon Apr 21 20:00:37 2025.
