 Gaussian 16, Revision A.03,
 Gaussian 16:  ES64L-G16RevA.03 25-Dec-2016

 --------------------------------------------
 #p opt UM062X/6-311+G** nosymm int=superfine
 --------------------------------------------

 -------------------
 Title Card Required
 -------------------
 Symbolic Z-matrix:
 Charge =  0 Multiplicity = 1

 SCF Done:  E(UM062X) =  -92.8301477809     A.U. after   14 cycles
 SCF Done:  E(UM062X) =  -92.8321214691     A.U. after   11 cycles
 SCF Done:  E(UM062X) =  -92.8321323010     A.U. after   12 cycles
 Optimization completed.
    -- Stationary point found.

                          Input orientation:
 ---------------------------------------------------------------------
 Center     Atomic      Atomic             Coordinates (Angstroms)
 Number     Number       Type             X           Y           Z
 ---------------------------------------------------------------------
      1          6           0       -1.722395    0.000000    0.000000
      2          7           0        1.722395    0.000000    0.000000
      3          1           0       -2.847999   -0.000000    0.000000
 ---------------------------------------------------------------------

 Alpha  occ. eigenvalues --  -14.82076 -10.76204  -0.80131  -0.76683  -0.45264
 Alpha  occ. eigenvalues --   -0.26673  -0.26673
 Alpha virt. eigenvalues --   -0.17909  -0.17909  -0.08233   0.00025   0.06469
 Alpha virt. eigenvalues --    0.06469   0.07831   0.12760   0.16279   0.17294
 Alpha virt. eigenvalues --    0.17294   0.23891   0.42150   0.52128   0.52128

  Beta  occ. eigenvalues --  -14.82076 -10.76204  -0.80131  -0.76683  -0.45264
  Beta  occ. eigenvalues --   -0.26673  -0.26673
  Beta virt. eigenvalues --   -0.17909  -0.17909  -0.08233   0.00025   0.06469
  Beta virt. eigenvalues --    0.06469   0.07831   0.12760   0.16279   0.17294
  Beta virt. eigenvalues --    0.17294   0.23891   0.42150   0.52128   0.52128

 Mulliken charges and spin densities:
               1          2
     1  C    0.064156  -0.000000
     2  N   -0.239888   0.000000
     3  H    0.175732   0.000000
 Sum of Mulliken charges =  -0.00000  -0.00000

 Dipole moment (field-independent basis, Debye):
    X=             -5.8921    Y=             -0.0000    Z=              0.0000  Tot=              5.8921
 Quadrupole moment (field-independent basis, Debye-Ang):
   XX=             -4.7468   YY=            -14.2712   ZZ=            -14.2712
   XY=              0.0000   XZ=             -0.0000   YZ=              0.0000

 Normal termination of Gaussian 16 at Mon Apr 21 18:38:48 2025.
