 Gaussian 16, Revision A.03,
 Gaussian 16:  ES64L-G16RevA.03 25-Dec-2016

 --------------------------------------------
 #p opt UM062X/6-311+G** nosymm int=superfine
 --------------------------------------------

 -------------------
 Title Card Required
 -------------------
 Symbolic Z-matrix:
 Charge =  0 Multiplicity = 1

 SCF Done:  E(UM062X) =  -77.2325007275     A.U. after    9 cycles
 SCF Done:  E(UM062X) =  -77.2587058850     A.U. after    9 cycles
 SCF Done:  E(UM062X) =  -77.2625469952     A.U. after    9 cycles
 SCF Done:  E(UM062X) =  -77.2625501821     A.U. after    7 cycles
 Optimization completed.
    -- Stationary point found.

                          Input orientation:
 ---------------------------------------------------------------------
 Center     Atomic      Atomic             Coordinates (Angstroms)
 Number     Number       Type             X           Y           Z
 ---------------------------------------------------------------------
      1          6           0       -0.694278    0.000000    0.000000
      2          6           0        0.694278    0.000000    0.000000
      3          1           0       -1.762798    0.000000   -0.000000
      4          1           0        1.762796    0.000000   -0.000000
 ---------------------------------------------------------------------

 Alpha  occ. eigenvalues --  -10.59969 -10.59882  -0.81625  -0.67001  -0.56016
 Alpha  occ. eigenvalues --   -0.33120  -0.33120
 Alpha virt. eigenvalues --    0.01084   0.01084   0.02307   0.02469   0.07972
 Alpha virt. eigenvalues --    0.07972   0.09332   0.12483   0.12483   0.13266
 Alpha virt. eigenvalues --    0.18628   0.23733   0.34560   0.45620   0.58288

  Beta  occ. eigenvalues --  -10.59969 -10.59882  -0.81625  -0.67001  -0.56016
  Beta  occ. eigenvalues --   -0.33120  -0.33120
  Beta virt. eigenvalues --    0.01084   0.01084   0.02307   0.02469   0.07972
  Beta virt. eigenvalues --    0.07972   0.09332   0.12483   0.12483   0.13266
  Beta virt. eigenvalues --    0.18628   0.23733   0.34560   0.45620   0.58288

 Mulliken charges and spin densities:
               1          2
     1  C   -0.208064   0.000000
     2  C   -0.208064  -0.000000
     3  H    0.208064   0.000000
     4  H    0.208063  -0.000000
 Sum of Mulliken charges =  -0.00000   0.00000

 Dipole moment (field-independent basis, Debye):
    X=             -0.0000    Y=              0.0000    Z=             -0.0000  Tot=              0.0000
 Quadrupole moment (field-independent basis, Debye-Ang):
   XX=             -6.2024   YY=            -14.6618   ZZ=            -14.6618
   XY=             -0.0000   XZ=             -0.0000   YZ=             -0.0000

 Normal termination of Gaussian 16 at Tue Dec  3 20:06:38 2024.
