 Gaussian 16, Revision A.03,
 Gaussian 16:  ES64L-G16RevA.03 25-Dec-2016

 --------------------------------------------
 #p opt UM062X/6-311+G** nosymm int=superfine
 --------------------------------------------

 -------------------
 Title Card Required
 -------------------
 Symbolic Z-matrix:
 Charge =  0 Multiplicity = 1

 SCF Done:  E(UM062X) =  -684.979007798     A.U. after   11 cycles
 SCF Done:  E(UM062X) =  -684.980967648     A.U. after   10 cycles
 SCF Done:  E(UM062X) =  -684.981924974     A.U. after   10 cycles
 SCF Done:  E(UM062X) =  -684.982000928     A.U. after    9 cycles
 SCF Done:  E(UM062X) =  -684.982034134     A.U. after   10 cycles
 SCF Done:  E(UM062X) =  -684.982052820     A.U. after   10 cycles
 SCF Done:  E(UM062X) =  -684.982077194     A.U. after   10 cycles
 SCF Done:  E(UM062X) =  -684.982118430     A.U. after   10 cycles
 SCF Done:  E(UM062X) =  -684.982180258     A.U. after   12 cycles
 SCF Done:  E(UM062X) =  -684.982199428     A.U. after   10 cycles
 SCF Done:  E(UM062X) =  -684.982257087     A.U. after   12 cycles
 SCF Done:  E(UM062X) =  -684.982266611     A.U. after    9 cycles
 SCF Done:  E(UM062X) =  -684.982257457     A.U. after   10 cycles
 SCF Done:  E(UM062X) =  -684.982265050     A.U. after    9 cycles
 SCF Done:  E(UM062X) =  -684.982250921     A.U. after   10 cycles
 SCF Done:  E(UM062X) =  -684.982268879     A.U. after   10 cycles
 SCF Done:  E(UM062X) =  -684.982269217     A.U. after    9 cycles
 SCF Done:  E(UM062X) =  -684.982268061     A.U. after    8 cycles
 SCF Done:  E(UM062X) =  -684.982269409     A.U. after    8 cycles
 SCF Done:  E(UM062X) =  -684.982269435     A.U. after    7 cycles
 Optimization completed.
    -- Stationary point found.

                          Input orientation:
 ---------------------------------------------------------------------
 Center     Atomic      Atomic             Coordinates (Angstroms)
 Number     Number       Type             X           Y           Z
 ---------------------------------------------------------------------
      1         15           0       -1.642217    0.000000    0.000000
      2         15           0        1.642217    0.000000    0.000000
      3          1           0        1.604720   -0.949220    1.053181
      4          1           0       -1.606292    1.018596    0.986455
      5          1           0        1.606367   -1.018620   -0.986444
      6          1           0       -1.604692    0.949237   -1.053166
 ---------------------------------------------------------------------

 Alpha  occ. eigenvalues --  -78.04679 -78.04679  -6.87022  -6.87021  -4.98571
 Alpha  occ. eigenvalues --   -4.98570  -4.98465  -4.98465  -4.98277  -4.98277
 Alpha  occ. eigenvalues --   -0.71669  -0.69853  -0.45205  -0.44289  -0.36352
 Alpha  occ. eigenvalues --   -0.35641  -0.27790
 Alpha virt. eigenvalues --   -0.10334   0.01592   0.03078   0.03319   0.04148
 Alpha virt. eigenvalues --    0.04743   0.05503   0.06138   0.06260   0.06719
 Alpha virt. eigenvalues --    0.08709   0.16240   0.18713   0.28178   0.28366

  Beta  occ. eigenvalues --  -78.04679 -78.04679  -6.87022  -6.87021  -4.98571
  Beta  occ. eigenvalues --   -4.98570  -4.98465  -4.98465  -4.98277  -4.98277
  Beta  occ. eigenvalues --   -0.71669  -0.69853  -0.45205  -0.44289  -0.36352
  Beta  occ. eigenvalues --   -0.35641  -0.27790
  Beta virt. eigenvalues --   -0.10334   0.01592   0.03078   0.03319   0.04148
  Beta virt. eigenvalues --    0.04743   0.05503   0.06138   0.06260   0.06719
  Beta virt. eigenvalues --    0.08709   0.16240   0.18713   0.28178   0.28366

 Mulliken charges and spin densities:
               1          2
     1  P   -0.036235  -0.000000
     2  P   -0.036244   0.000000
     3  H    0.018128  -0.000000
     4  H    0.018112   0.000000
     5  H    0.018111  -0.000000
     6  H    0.018128   0.000000
 Sum of Mulliken charges =  -0.00000   0.00000

 Dipole moment (field-independent basis, Debye):
    X=              0.0000    Y=              0.0000    Z=              0.0000  Tot=              0.0000
 Quadrupole moment (field-independent basis, Debye-Ang):
   XX=            -29.4906   YY=            -31.1168   ZZ=            -28.3424
   XY=             -3.7238   XZ=              0.1239   YZ=              0.0938

 Normal termination of Gaussian 16 at Mon Apr 21 20:51:17 2025.
