 Gaussian 16, Revision A.03,
 Gaussian 16:  ES64L-G16RevA.03 25-Dec-2016

 --------------------------------------------
 #p opt UM062X/6-311+G** nosymm int=superfine
 --------------------------------------------

 -------------------
 Title Card Required
 -------------------
 Symbolic Z-matrix:
 Charge = -1 Multiplicity = 2

 SCF Done:  E(UM062X) =  -50.6947204283     A.U. after   11 cycles
 SCF Done:  E(UM062X) =  -50.6947259225     A.U. after    7 cycles
 Optimization completed.
    -- Stationary point found.

                          Input orientation:
 ---------------------------------------------------------------------
 Center     Atomic      Atomic             Coordinates (Angstroms)
 Number     Number       Type             X           Y           Z
 ---------------------------------------------------------------------
      1          5           0       -0.991404    0.000000    0.000000
      2          5           0        0.991404    0.000000    0.000000
      3          1           0       -2.172730   -0.000903    0.000000
      4          1           0        2.172730    0.000903   -0.000000
 ---------------------------------------------------------------------

 Alpha  occ. eigenvalues --   -6.88957  -6.88936  -0.36412  -0.33063  -0.18493
 Alpha  occ. eigenvalues --   -0.02052  -0.00718
 Alpha virt. eigenvalues --    0.13987   0.15390   0.16548   0.16607   0.20254
 Alpha virt. eigenvalues --    0.21409   0.21544   0.23873   0.24168   0.24192
 Alpha virt. eigenvalues --    0.27544   0.38452   0.43921   0.56251   0.59304

  Beta  occ. eigenvalues --   -6.88915  -6.88901  -0.34450  -0.32154  -0.17488
  Beta  occ. eigenvalues --    0.01114
  Beta virt. eigenvalues --    0.10815   0.14120   0.14423   0.15856   0.17245
  Beta virt. eigenvalues --    0.19141   0.20808   0.21077   0.22286   0.25916
  Beta virt. eigenvalues --    0.27072   0.28407   0.38724   0.44448   0.56261

 Mulliken charges and spin densities:
               1          2
     1  B   -0.501576   0.525553
     2  B   -0.501576   0.525553
     3  H    0.001576  -0.025553
     4  H    0.001576  -0.025553
 Sum of Mulliken charges =  -1.00000   1.00000

 Dipole moment (field-independent basis, Debye):
    X=              0.0000    Y=             -0.0000    Z=             -0.0000  Tot=              0.0000
 Quadrupole moment (field-independent basis, Debye-Ang):
   XX=            -23.1460   YY=            -29.6661   ZZ=            -22.6726
   XY=              0.0061   XZ=             -0.0000   YZ=              0.0000

 Normal termination of Gaussian 16 at Mon Apr 21 17:25:43 2025.
