 Gaussian 16, Revision A.03,
 Gaussian 16:  ES64L-G16RevA.03 25-Dec-2016

 --------------------------------------------
 #p opt UM062X/6-311+G** nosymm int=superfine
 --------------------------------------------

 -------------------
 Title Card Required
 -------------------
 Symbolic Z-matrix:
 Charge =  0 Multiplicity = 1

 SCF Done:  E(UM062X) =  -114.176225637     A.U. after   15 cycles
 SCF Done:  E(UM062X) =  -114.176834819     A.U. after   11 cycles
 SCF Done:  E(UM062X) =  -114.177053195     A.U. after   10 cycles
 SCF Done:  E(UM062X) =  -114.177089623     A.U. after   11 cycles
 SCF Done:  E(UM062X) =  -114.177090942     A.U. after   13 cycles
 SCF Done:  E(UM062X) =  -114.177090409     A.U. after   11 cycles
 SCF Done:  E(UM062X) =  -114.177090620     A.U. after   15 cycles
 SCF Done:  E(UM062X) =  -114.177090934     A.U. after   13 cycles
 Optimization completed.
    -- Stationary point found.

                          Input orientation:
 ---------------------------------------------------------------------
 Center     Atomic      Atomic             Coordinates (Angstroms)
 Number     Number       Type             X           Y           Z
 ---------------------------------------------------------------------
      1          6           0       -1.073311    0.000000    0.000000
      2          8           0        1.073311    0.000000    0.000000
      3          1           0       -1.590484   -0.956530   -0.000690
      4          1           0       -1.590485    0.956530   -0.000689
 ---------------------------------------------------------------------

 Alpha  occ. eigenvalues --  -19.65806 -10.72290  -0.97223  -0.82318  -0.58726
 Alpha  occ. eigenvalues --   -0.39222  -0.34528  -0.33385
 Alpha virt. eigenvalues --   -0.14649  -0.07272   0.00762   0.04271   0.06440
 Alpha virt. eigenvalues --    0.06908   0.13625   0.16888   0.21269   0.23957
 Alpha virt. eigenvalues --    0.26727   0.33155   0.40047   0.42641   0.53104

  Beta  occ. eigenvalues --  -19.65806 -10.72290  -0.97223  -0.82318  -0.58726
  Beta  occ. eigenvalues --   -0.39222  -0.34528  -0.33385
  Beta virt. eigenvalues --   -0.14649  -0.07272   0.00762   0.04271   0.06440
  Beta virt. eigenvalues --    0.06908   0.13625   0.16888   0.21269   0.23957
  Beta virt. eigenvalues --    0.26727   0.33155   0.40047   0.42641   0.53104

 Mulliken charges and spin densities:
               1          2
     1  C   -0.115068  -0.000000
     2  O   -0.301081   0.000000
     3  H    0.208074   0.000000
     4  H    0.208074   0.000000
 Sum of Mulliken charges =  -0.00000   0.00000

 Dipole moment (field-independent basis, Debye):
    X=             -5.2335    Y=             -0.0000    Z=             -0.0017  Tot=              5.2335
 Quadrupole moment (field-independent basis, Debye-Ang):
   XX=             -9.2893   YY=            -11.8605   ZZ=            -12.9506
   XY=             -0.0000   XZ=             -0.0004   YZ=              0.0000

 Normal termination of Gaussian 16 at Mon Apr 21 18:50:02 2025.
