 Gaussian 16, Revision A.03,
 Gaussian 16:  ES64L-G16RevA.03 25-Dec-2016

 ---------------------------------------------------
 #p UM062X/6-311+G** force int=superfine pop=saveNBO
 ---------------------------------------------------

 -------------------
 Title Card Required
 -------------------
 Symbolic Z-matrix:
 Charge =  0 Multiplicity = 1

                         Standard orientation:
 ---------------------------------------------------------------------
 Center     Atomic      Atomic             Coordinates (Angstroms)
 Number     Number       Type             X           Y           Z
 ---------------------------------------------------------------------
      1          8           0        0.000000    0.000000    1.368562
      2          8           0        0.000000    0.000000   -1.368562
 ---------------------------------------------------------------------

 SCF Done:  E(UM062X) =  -149.840053239     A.U. after   10 cycles

 Unable to determine electronic state:  partially filled degenerate orbitals.
 Alpha  occ. eigenvalues --  -19.83269 -19.83265  -1.11059  -1.09735  -0.49168
 Alpha  occ. eigenvalues --   -0.48364  -0.43050  -0.41150
 Alpha virt. eigenvalues --   -0.30104  -0.27883   0.09942   0.12709   0.14625
 Alpha virt. eigenvalues --    0.14674   0.19970   0.20244   0.20804   0.30154
 Alpha virt. eigenvalues --    0.92187   0.98870   1.00047   1.02551   1.03877

  Beta  occ. eigenvalues --  -19.83269 -19.83265  -1.11059  -1.09735  -0.49168
  Beta  occ. eigenvalues --   -0.48364  -0.43050  -0.41150
  Beta virt. eigenvalues --   -0.30104  -0.27883   0.09942   0.12709   0.14625
  Beta virt. eigenvalues --    0.14674   0.19970   0.20244   0.20804   0.30154
  Beta virt. eigenvalues --    0.92187   0.98870   1.00047   1.02551   1.03877

 Mulliken charges and spin densities:
               1          2
     1  O   -0.000000   0.000000
     2  O   -0.000000   0.000000
 Sum of Mulliken charges =  -0.00000   0.00000

 Dipole moment (field-independent basis, Debye):
    X=             -0.0000    Y=              0.0000    Z=             -0.0000  Tot=              0.0000
 Quadrupole moment (field-independent basis, Debye-Ang):
   XX=            -11.9993   YY=            -10.1929   ZZ=             -9.1098
   XY=              0.0000   XZ=             -0.0000   YZ=              0.0000

 Summary of Natural Population Analysis:

                                       Natural Population
                Natural  -----------------------------------------------
    Atom  No    Charge         Core      Valence    Rydberg      Total
 -----------------------------------------------------------------------
      O    1   -0.00000      1.00000     2.99905    0.00095     4.00000
      O    2   -0.00000      1.00000     2.99905    0.00095     4.00000
 =======================================================================
   * Total *   -0.00000      2.00000     5.99811    0.00189     8.00000

 Normal termination of Gaussian 16 at Mon Apr 21 19:51:01 2025.
