 Gaussian 16, Revision A.03,
 Gaussian 16:  ES64L-G16RevA.03 25-Dec-2016

 --------------------------------------------
 #p opt UM062X/6-311+G** nosymm int=superfine
 --------------------------------------------

 -------------------
 Title Card Required
 -------------------
 Symbolic Z-matrix:
 Charge =  0 Multiplicity = 1

 SCF Done:  E(UM062X) =  -79.5592964730     A.U. after   10 cycles
 SCF Done:  E(UM062X) =  -79.5635977481     A.U. after   10 cycles
 SCF Done:  E(UM062X) =  -79.5655680910     A.U. after   12 cycles
 SCF Done:  E(UM062X) =  -79.5655868243     A.U. after    9 cycles
 Optimization completed.
    -- Stationary point found.

                          Input orientation:
 ---------------------------------------------------------------------
 Center     Atomic      Atomic             Coordinates (Angstroms)
 Number     Number       Type             X           Y           Z
 ---------------------------------------------------------------------
      1          6           0       -2.121675    0.000000    0.000000
      2          6           0        2.121800    0.000000    0.000000
      3          1           0        2.164207   -0.933916    0.540408
      4          1           0       -2.164064   -0.934970   -0.538584
      5          1           0        2.164193    0.934970    0.538584
      6          1           0        2.164224   -0.001053   -1.078999
      7          1           0       -2.164082    0.933916   -0.540407
      8          1           0       -2.164103    0.001052    1.078999
 ---------------------------------------------------------------------

 Alpha  occ. eigenvalues --  -10.57263 -10.57262  -0.77181  -0.76964  -0.49390
 Alpha  occ. eigenvalues --   -0.49390  -0.49314  -0.49314  -0.21091
 Alpha virt. eigenvalues --   -0.12143   0.03073   0.04841   0.05265   0.05265
 Alpha virt. eigenvalues --    0.07269   0.07269   0.11069   0.12787   0.18745
 Alpha virt. eigenvalues --    0.18745   0.19911   0.19911   0.21119   0.25226

  Beta  occ. eigenvalues --  -10.57263 -10.57262  -0.77181  -0.76964  -0.49390
  Beta  occ. eigenvalues --   -0.49390  -0.49314  -0.49314  -0.21091
  Beta virt. eigenvalues --   -0.12143   0.03073   0.04841   0.05265   0.05265
  Beta virt. eigenvalues --    0.07269   0.07269   0.11069   0.12787   0.18745
  Beta virt. eigenvalues --    0.18745   0.19911   0.19911   0.21119   0.25226

 Mulliken charges and spin densities:
               1          2
     1  C   -0.521760   0.000000
     2  C   -0.521760  -0.000000
     3  H    0.173920   0.000000
     4  H    0.173920  -0.000000
     5  H    0.173920   0.000000
     6  H    0.173919   0.000000
     7  H    0.173920  -0.000000
     8  H    0.173919  -0.000000
 Sum of Mulliken charges =  -0.00000  -0.00000

 Dipole moment (field-independent basis, Debye):
    X=             -0.0000    Y=             -0.0000    Z=             -0.0000  Tot=              0.0000
 Quadrupole moment (field-independent basis, Debye-Ang):
   XX=            -16.1019   YY=            -14.8835   ZZ=            -14.8836
   XY=             -0.0000   XZ=             -0.0001   YZ=             -0.0000

 Normal termination of Gaussian 16 at Tue Dec  3 10:10:19 2024.
