 Gaussian 16, Revision A.03,
 Gaussian 16:  ES64L-G16RevA.03 25-Dec-2016

 --------------------------------------------
 #p opt UM062X/6-311+G** nosymm int=superfine
 --------------------------------------------

 -------------------
 Title Card Required
 -------------------
 Symbolic Z-matrix:
 Charge =  0 Multiplicity = 1

 SCF Done:  E(UM062X) =  -683.675361620     A.U. after   10 cycles
 SCF Done:  E(UM062X) =  -683.676447295     A.U. after   10 cycles
 SCF Done:  E(UM062X) =  -683.676740549     A.U. after   10 cycles
 SCF Done:  E(UM062X) =  -683.676740650     A.U. after    7 cycles
 Optimization completed.
    -- Stationary point found.

                          Input orientation:
 ---------------------------------------------------------------------
 Center     Atomic      Atomic             Coordinates (Angstroms)
 Number     Number       Type             X           Y           Z
 ---------------------------------------------------------------------
      1         15           0       -1.634490    0.000000    0.000000
      2         15           0        1.634490    0.000000    0.000000
      3          1           0       -1.559195   -1.420765   -0.000000
      4          1           0        1.559195    1.420765   -0.000000
 ---------------------------------------------------------------------

 Alpha  occ. eigenvalues --  -78.08333 -78.08332  -6.90288  -6.90288  -5.01709
 Alpha  occ. eigenvalues --   -5.01709  -5.01693  -5.01692  -5.01506  -5.01506
 Alpha  occ. eigenvalues --   -0.69401  -0.67091  -0.40704  -0.40026  -0.28752
 Alpha  occ. eigenvalues --   -0.25586
 Alpha virt. eigenvalues --   -0.15177  -0.11084   0.01976   0.03171   0.03785
 Alpha virt. eigenvalues --    0.04676   0.05189   0.05947   0.06614   0.08497
 Alpha virt. eigenvalues --    0.08683   0.12251   0.27685   0.29568   0.30284

  Beta  occ. eigenvalues --  -78.08333 -78.08332  -6.90288  -6.90288  -5.01709
  Beta  occ. eigenvalues --   -5.01709  -5.01693  -5.01692  -5.01506  -5.01506
  Beta  occ. eigenvalues --   -0.69401  -0.67091  -0.40704  -0.40026  -0.28752
  Beta  occ. eigenvalues --   -0.25586
  Beta virt. eigenvalues --   -0.15177  -0.11084   0.01976   0.03171   0.03785
  Beta virt. eigenvalues --    0.04676   0.05189   0.05947   0.06614   0.08497
  Beta virt. eigenvalues --    0.08683   0.12251   0.27685   0.29568   0.30284

 Mulliken charges and spin densities:
               1          2
     1  P    0.005458   0.000001
     2  P    0.005458  -0.000001
     3  H   -0.005458  -0.000000
     4  H   -0.005458   0.000000
 Sum of Mulliken charges =  -0.00000   0.00000

 Dipole moment (field-independent basis, Debye):
    X=             -0.0000    Y=              0.0000    Z=             -0.0000  Tot=              0.0000
 Quadrupole moment (field-independent basis, Debye-Ang):
   XX=            -27.2689   YY=            -28.2978   ZZ=            -30.7362
   XY=              2.8256   XZ=             -0.0000   YZ=             -0.0000

 Normal termination of Gaussian 16 at Mon Apr 21 21:13:01 2025.
