 Gaussian 16, Revision A.03,
 Gaussian 16:  ES64L-G16RevA.03 25-Dec-2016

 --------------------------------------------
 #p opt UM062X/6-311+G** nosymm int=superfine
 --------------------------------------------

 -------------------
 Title Card Required
 -------------------
 Symbolic Z-matrix:
 Charge =  1 Multiplicity = 2

 SCF Done:  E(UM062X) =  -80.1647683676     A.U. after   18 cycles
 SCF Done:  E(UM062X) =  -80.1655548009     A.U. after   10 cycles
 SCF Done:  E(UM062X) =  -80.1655572328     A.U. after   10 cycles
 Optimization completed.
    -- Stationary point found.

                          Input orientation:
 ---------------------------------------------------------------------
 Center     Atomic      Atomic             Coordinates (Angstroms)
 Number     Number       Type             X           Y           Z
 ---------------------------------------------------------------------
      1          5           0       -1.452734    0.000000    0.000000
      2          7           0        1.452734    0.000000    0.000000
      3          1           0       -2.655920   -0.000433   -0.000000
      4          1           0        2.489050   -0.000293    0.000000
 ---------------------------------------------------------------------

 Alpha  occ. eigenvalues --  -14.99380  -7.51995  -1.12089  -0.84918  -0.66506
 Alpha  occ. eigenvalues --   -0.58708  -0.58708
 Alpha virt. eigenvalues --   -0.39752  -0.32567  -0.32567  -0.14481  -0.10802
 Alpha virt. eigenvalues --   -0.09627  -0.09627  -0.06926  -0.00567  -0.00077
 Alpha virt. eigenvalues --   -0.00077   0.05806   0.08423   0.14428   0.14428

  Beta  occ. eigenvalues --  -14.97009  -7.53256  -0.99441  -0.88451  -0.67932
  Beta  occ. eigenvalues --   -0.59553
  Beta virt. eigenvalues --   -0.34988  -0.34988  -0.23158  -0.23158  -0.14185
  Beta virt. eigenvalues --   -0.10866  -0.09281  -0.09281  -0.07206  -0.01143
  Beta virt. eigenvalues --    0.01526   0.01526   0.04758   0.09574   0.16342

 Mulliken charges and spin densities:
               1          2
     1  B    0.714179  -0.822300
     2  N   -0.234108   2.041472
     3  H    0.216378  -0.141324
     4  H    0.303551  -0.077848
 Sum of Mulliken charges =   1.00000   1.00000

 Dipole moment (field-independent basis, Debye):
    X=             -4.8700    Y=             -0.0008    Z=             -0.0000  Tot=              4.8700
 Quadrupole moment (field-independent basis, Debye-Ang):
   XX=              9.7016   YY=            -10.2684   ZZ=            -10.2684
   XY=             -0.0006   XZ=              0.0000   YZ=             -0.0000

 Normal termination of Gaussian 16 at Mon Apr 21 17:57:49 2025.
