 Gaussian 16, Revision A.03,
 Gaussian 16:  ES64L-G16RevA.03 25-Dec-2016

 --------------------------------------------
 #p opt UM062X/6-311+G** nosymm int=superfine
 --------------------------------------------

 -------------------
 Title Card Required
 -------------------
 Symbolic Z-matrix:
 Charge =  0 Multiplicity = 1

 SCF Done:  E(UM062X) =  -797.406724599     A.U. after   14 cycles
 SCF Done:  E(UM062X) =  -797.407152382     A.U. after   12 cycles
 SCF Done:  E(UM062X) =  -797.408057747     A.U. after   15 cycles
 SCF Done:  E(UM062X) =  -797.408093641     A.U. after   15 cycles
 SCF Done:  E(UM062X) =  -797.408203909     A.U. after   15 cycles
 SCF Done:  E(UM062X) =  -797.408207335     A.U. after   16 cycles
 SCF Done:  E(UM062X) =  -797.408207769     A.U. after   12 cycles
 SCF Done:  E(UM062X) =  -797.408207791     A.U. after   15 cycles
 Optimization completed.
    -- Stationary point found.

                          Input orientation:
 ---------------------------------------------------------------------
 Center     Atomic      Atomic             Coordinates (Angstroms)
 Number     Number       Type             X           Y           Z
 ---------------------------------------------------------------------
      1         16           0       -1.943191    0.000000    0.000000
      2         16           0        1.943191    0.000000    0.000000
      3          1           0       -1.815441   -1.280666   -0.395018
      4          1           0        1.814557    0.409698    1.275938
 ---------------------------------------------------------------------

 Alpha  occ. eigenvalues --  -89.94634 -89.94633  -8.30847  -8.30846  -6.22998
 Alpha  occ. eigenvalues --   -6.22998  -6.22740  -6.22739  -6.22174  -6.22173
 Alpha  occ. eigenvalues --   -0.81616  -0.81049  -0.47434  -0.47315  -0.33559
 Alpha  occ. eigenvalues --   -0.33227  -0.31740
 Alpha virt. eigenvalues --   -0.20917   0.01964   0.03052   0.04385   0.05018
 Alpha virt. eigenvalues --    0.06473   0.06805   0.07429   0.07544   0.09603
 Alpha virt. eigenvalues --    0.13189   0.30581   0.31161   0.32761   0.35205

  Beta  occ. eigenvalues --  -89.94634 -89.94633  -8.30847  -8.30846  -6.22998
  Beta  occ. eigenvalues --   -6.22998  -6.22740  -6.22739  -6.22174  -6.22173
  Beta  occ. eigenvalues --   -0.81616  -0.81049  -0.47434  -0.47315  -0.33559
  Beta  occ. eigenvalues --   -0.33227  -0.31740
  Beta virt. eigenvalues --   -0.20917   0.01964   0.03052   0.04385   0.05018
  Beta virt. eigenvalues --    0.06473   0.06805   0.07429   0.07544   0.09603
  Beta virt. eigenvalues --    0.13189   0.30581   0.31161   0.32761   0.35205

 Mulliken charges and spin densities:
               1          2
     1  S   -0.084603   0.000000
     2  S   -0.084536  -0.000000
     3  H    0.084568  -0.000000
     4  H    0.084571   0.000000
 Sum of Mulliken charges =  -0.00000   0.00000

 Dipole moment (field-independent basis, Debye):
    X=             -0.0003    Y=             -0.7205    Z=              0.7290  Tot=              1.0250
 Quadrupole moment (field-independent basis, Debye-Ang):
   XX=            -25.2699   YY=            -28.0627   ZZ=            -28.1163
   XY=              2.7014   XZ=              2.6695   YZ=              2.3237

 Normal termination of Gaussian 16 at Mon Apr 21 21:17:29 2025.
