 Gaussian 16, Revision A.03,
 Gaussian 16:  ES64L-G16RevA.03 25-Dec-2016

 --------------------------------------------
 #p opt UM062X/6-311+G** nosymm int=superfine
 --------------------------------------------

 -------------------
 Title Card Required
 -------------------
 Symbolic Z-matrix:
 Charge =  0 Multiplicity = 1

 SCF Done:  E(UM062X) =  -77.0240384712     A.U. after   10 cycles
 SCF Done:  E(UM062X) =  -77.0681432511     A.U. after    9 cycles
 SCF Done:  E(UM062X) =  -77.1277339658     A.U. after   10 cycles
 SCF Done:  E(UM062X) =  -77.1294821998     A.U. after    8 cycles
 SCF Done:  E(UM062X) =  -77.1294867091     A.U. after    7 cycles
 Optimization completed.
    -- Stationary point found.

                          Input orientation:
 ---------------------------------------------------------------------
 Center     Atomic      Atomic             Coordinates (Angstroms)
 Number     Number       Type             X           Y           Z
 ---------------------------------------------------------------------
      1          6           0       -0.813981    0.000000    0.000000
      2          6           0        0.813981    0.000000    0.000000
      3          1           0       -1.888411   -0.000002    0.000002
      4          1           0        1.888381   -0.000002    0.000002
 ---------------------------------------------------------------------

 Alpha  occ. eigenvalues --  -10.64820 -10.64784  -0.78353  -0.69190  -0.53859
 Alpha  occ. eigenvalues --   -0.30757  -0.30757
 Alpha virt. eigenvalues --   -0.03450  -0.03450   0.00823   0.02334   0.07299
 Alpha virt. eigenvalues --    0.08336   0.08336   0.09489   0.11260   0.11260
 Alpha virt. eigenvalues --    0.17785   0.22815   0.28693   0.46597   0.58680

  Beta  occ. eigenvalues --  -10.64820 -10.64784  -0.78353  -0.69190  -0.53859
  Beta  occ. eigenvalues --   -0.30757  -0.30757
  Beta virt. eigenvalues --   -0.03450  -0.03450   0.00823   0.02334   0.07299
  Beta virt. eigenvalues --    0.08336   0.08336   0.09489   0.11260   0.11260
  Beta virt. eigenvalues --    0.17785   0.22815   0.28693   0.46597   0.58680

 Mulliken charges and spin densities:
               1          2
     1  C   -0.239288  -0.000000
     2  C   -0.239290   0.000000
     3  H    0.239293   0.000000
     4  H    0.239285  -0.000000
 Sum of Mulliken charges =  -0.00000  -0.00000

 Dipole moment (field-independent basis, Debye):
    X=             -0.0001    Y=             -0.0000    Z=              0.0000  Tot=              0.0001
 Quadrupole moment (field-independent basis, Debye-Ang):
   XX=             -5.2582   YY=            -15.5572   ZZ=            -15.5572
   XY=             -0.0000   XZ=              0.0000   YZ=             -0.0000

 Normal termination of Gaussian 16 at Tue Dec  3 20:12:36 2024.
