 Gaussian 16, Revision A.03,
 Gaussian 16:  ES64L-G16RevA.03 25-Dec-2016

 --------------------------------------------
 #p opt UM062X/6-311+G** nosymm int=superfine
 --------------------------------------------

 -------------------
 Title Card Required
 -------------------
 Symbolic Z-matrix:
 Charge =  1 Multiplicity = 2

 SCF Done:  E(UM062X) =  -582.138621294     A.U. after   11 cycles
 SCF Done:  E(UM062X) =  -582.139347603     A.U. after    9 cycles
 SCF Done:  E(UM062X) =  -582.139515889     A.U. after    9 cycles
 SCF Done:  E(UM062X) =  -582.139516202     A.U. after    7 cycles
 Optimization completed.
    -- Stationary point found.

                          Input orientation:
 ---------------------------------------------------------------------
 Center     Atomic      Atomic             Coordinates (Angstroms)
 Number     Number       Type             X           Y           Z
 ---------------------------------------------------------------------
      1         14           0       -2.251292    0.000000    0.000000
      2         14           0        2.251292    0.000000    0.000000
      3          1           0        2.369871   -1.459780   -0.000007
      4          1           0       -2.369162   -0.729763    1.264341
      5          1           0        2.369668    0.729922   -1.264201
      6          1           0        2.368972    0.729850    1.264309
      7          1           0       -2.369896    1.459777   -0.000128
      8          1           0       -2.369452   -0.730012   -1.264169
 ---------------------------------------------------------------------

 Alpha  occ. eigenvalues --  -67.22597 -67.22597  -5.77432  -5.77430  -4.09114
 Alpha  occ. eigenvalues --   -4.09113  -4.08303  -4.08303  -4.08303  -4.08303
 Alpha  occ. eigenvalues --   -0.81155  -0.80730  -0.61500  -0.61499  -0.61393
 Alpha  occ. eigenvalues --   -0.61392  -0.40919
 Alpha virt. eigenvalues --   -0.29703  -0.12276  -0.11820  -0.09962  -0.09722
 Alpha virt. eigenvalues --   -0.09720  -0.08486  -0.08486  -0.07719  -0.07407
 Alpha virt. eigenvalues --   -0.07407  -0.06181  -0.06180  -0.04710   0.00676

  Beta  occ. eigenvalues --  -67.22330 -67.22330  -5.77352  -5.77350  -4.08489
  Beta  occ. eigenvalues --   -4.08489  -4.08211  -4.08211  -4.08211  -4.08211
  Beta  occ. eigenvalues --   -0.79407  -0.79156  -0.61379  -0.61378  -0.61260
  Beta  occ. eigenvalues --   -0.61259
  Beta virt. eigenvalues --   -0.31983  -0.23084  -0.15110  -0.12740  -0.12737
  Beta virt. eigenvalues --   -0.10893  -0.10865  -0.08971  -0.08970  -0.07284
  Beta virt. eigenvalues --   -0.06988  -0.06988  -0.05819  -0.05818  -0.05576

 Mulliken charges and spin densities:
               1          2
     1  Si   0.500583   0.551244
     2  Si   0.500583   0.551243
     3  H   -0.000174  -0.017063
     4  H   -0.000207  -0.017089
     5  H   -0.000199  -0.017092
     6  H   -0.000210  -0.017088
     7  H   -0.000173  -0.017064
     8  H   -0.000202  -0.017091
 Sum of Mulliken charges =   1.00000   1.00000

 Dipole moment (field-independent basis, Debye):
    X=              0.0000    Y=             -0.0000    Z=              0.0001  Tot=              0.0001
 Quadrupole moment (field-independent basis, Debye-Ang):
   XX=              3.9501   YY=            -26.2167   ZZ=            -26.2167
   XY=              0.0005   XZ=              0.0001   YZ=             -0.0000

 Normal termination of Gaussian 16 at Mon Apr 21 20:11:08 2025.
