 Gaussian 16, Revision A.03,
 Gaussian 16:  ES64L-G16RevA.03 25-Dec-2016

 --------------------------------------------
 #p opt UM062X/6-311+G** nosymm int=superfine
 --------------------------------------------

 -------------------
 Title Card Required
 -------------------
 Symbolic Z-matrix:
 Charge =  0 Multiplicity = 1

 SCF Done:  E(UM062X) =  -79.7090287815     A.U. after    8 cycles
 SCF Done:  E(UM062X) =  -79.7318104957     A.U. after    8 cycles
 SCF Done:  E(UM062X) =  -79.7441023385     A.U. after    9 cycles
 SCF Done:  E(UM062X) =  -79.7442146342     A.U. after    7 cycles
 Optimization completed.
    -- Stationary point found.

                          Input orientation:
 ---------------------------------------------------------------------
 Center     Atomic      Atomic             Coordinates (Angstroms)
 Number     Number       Type             X           Y           Z
 ---------------------------------------------------------------------
      1          6           0       -1.000247    0.000000    0.000000
      2          6           0        1.000349    0.000000    0.000000
      3          1           0        1.293605   -0.904469    0.523398
      4          1           0       -1.293505   -0.905491   -0.521634
      5          1           0        1.293609    0.905490    0.521632
      6          1           0        1.293666   -0.001020   -1.044974
      7          1           0       -1.293503    0.904470   -0.523398
      8          1           0       -1.293566    0.001020    1.044972
 ---------------------------------------------------------------------

 Alpha  occ. eigenvalues --  -10.54483 -10.54473  -0.79208  -0.72457  -0.48441
 Alpha  occ. eigenvalues --   -0.48441  -0.44189  -0.44189  -0.33609
 Alpha virt. eigenvalues --    0.02324   0.02768   0.05636   0.05636   0.08503
 Alpha virt. eigenvalues --    0.08503   0.09471   0.11616   0.13896   0.18215
 Alpha virt. eigenvalues --    0.18216   0.22010   0.22010   0.24291   0.27044

  Beta  occ. eigenvalues --  -10.54483 -10.54473  -0.79208  -0.72457  -0.48441
  Beta  occ. eigenvalues --   -0.48441  -0.44189  -0.44189  -0.33609
  Beta virt. eigenvalues --    0.02324   0.02768   0.05636   0.05636   0.08503
  Beta virt. eigenvalues --    0.08503   0.09471   0.11616   0.13896   0.18215
  Beta virt. eigenvalues --    0.18216   0.22010   0.22010   0.24291   0.27044

 Mulliken charges and spin densities:
               1          2
     1  C   -0.496992   0.000000
     2  C   -0.496992  -0.000000
     3  H    0.165665  -0.000000
     4  H    0.165664  -0.000000
     5  H    0.165664  -0.000000
     6  H    0.165663  -0.000000
     7  H    0.165665  -0.000000
     8  H    0.165663  -0.000000
 Sum of Mulliken charges =  -0.00000  -0.00000

 Dipole moment (field-independent basis, Debye):
    X=             -0.0000    Y=              0.0000    Z=              0.0000  Tot=              0.0000
 Quadrupole moment (field-independent basis, Debye-Ang):
   XX=            -15.5947   YY=            -14.8843   ZZ=            -14.8841
   XY=              0.0000   XZ=             -0.0001   YZ=              0.0000

 Normal termination of Gaussian 16 at Tue Nov 19 12:05:45 2024.
