 Gaussian 16, Revision A.03,
 Gaussian 16:  ES64L-G16RevA.03 25-Dec-2016

 --------------------------------------------
 #p opt UM062X/6-311+G** nosymm int=superfine
 --------------------------------------------

 -------------------
 Title Card Required
 -------------------
 Symbolic Z-matrix:
 Charge =  0 Multiplicity = 1

 SCF Done:  E(UM062X) =  -582.470128075     A.U. after    9 cycles
 SCF Done:  E(UM062X) =  -582.470972992     A.U. after    8 cycles
 SCF Done:  E(UM062X) =  -582.471092198     A.U. after    8 cycles
 Optimization completed.
    -- Stationary point found.

                          Input orientation:
 ---------------------------------------------------------------------
 Center     Atomic      Atomic             Coordinates (Angstroms)
 Number     Number       Type             X           Y           Z
 ---------------------------------------------------------------------
      1         14           0       -1.569819    0.000000    0.000000
      2         14           0        1.569819    0.000000    0.000000
      3          1           0        2.026126   -1.404957   -0.000055
      4          1           0       -2.026179   -0.702325    1.216809
      5          1           0        2.026267    0.702493   -1.216678
      6          1           0        2.026184    0.702377    1.216777
      7          1           0       -2.026128    1.404956   -0.000115
      8          1           0       -2.026270   -0.702546   -1.216647
 ---------------------------------------------------------------------

 Alpha  occ. eigenvalues --  -67.00842 -67.00842  -5.55684  -5.55684  -3.86875
 Alpha  occ. eigenvalues --   -3.86872  -3.86745  -3.86745  -3.86745  -3.86745
 Alpha  occ. eigenvalues --   -0.61414  -0.59488  -0.41580  -0.41580  -0.40869
 Alpha  occ. eigenvalues --   -0.40869  -0.27788
 Alpha virt. eigenvalues --   -0.03467   0.02111   0.02962   0.02962   0.04189
 Alpha virt. eigenvalues --    0.04762   0.05528   0.05528   0.06654   0.06654
 Alpha virt. eigenvalues --    0.08009   0.09154   0.09155   0.14960   0.17320

  Beta  occ. eigenvalues --  -67.00842 -67.00842  -5.55684  -5.55684  -3.86875
  Beta  occ. eigenvalues --   -3.86872  -3.86745  -3.86745  -3.86745  -3.86745
  Beta  occ. eigenvalues --   -0.61414  -0.59488  -0.41580  -0.41580  -0.40869
  Beta  occ. eigenvalues --   -0.40869  -0.27788
  Beta virt. eigenvalues --   -0.03467   0.02111   0.02962   0.02962   0.04189
  Beta virt. eigenvalues --    0.04762   0.05528   0.05528   0.06654   0.06654
  Beta virt. eigenvalues --    0.08009   0.09154   0.09155   0.14960   0.17320

 Mulliken charges and spin densities:
               1          2
     1  Si   0.291918  -0.000000
     2  Si   0.291918  -0.000000
     3  H   -0.097308   0.000000
     4  H   -0.097305   0.000000
     5  H   -0.097305   0.000000
     6  H   -0.097305   0.000000
     7  H   -0.097308   0.000000
     8  H   -0.097305   0.000000
 Sum of Mulliken charges =  -0.00000   0.00000

 Dipole moment (field-independent basis, Debye):
    X=              0.0000    Y=              0.0000    Z=             -0.0000  Tot=              0.0000
 Quadrupole moment (field-independent basis, Debye-Ang):
   XX=            -30.7625   YY=            -31.7237   ZZ=            -31.7236
   XY=              0.0003   XZ=              0.0000   YZ=              0.0000

 Normal termination of Gaussian 16 at Mon Apr 21 20:19:31 2025.
