 Gaussian 16, Revision A.03,
 Gaussian 16:  ES64L-G16RevA.03 25-Dec-2016

 --------------------------------------------
 #p opt UM062X/6-311+G** nosymm int=superfine
 --------------------------------------------

 -------------------
 Title Card Required
 -------------------
 Symbolic Z-matrix:
 Charge =  1 Multiplicity = 2

 SCF Done:  E(UM062X) =  -379.472075027     A.U. after   16 cycles
 SCF Done:  E(UM062X) =  -379.472220413     A.U. after   14 cycles
 Optimization completed.
    -- Stationary point found.

                          Input orientation:
 ---------------------------------------------------------------------
 Center     Atomic      Atomic             Coordinates (Angstroms)
 Number     Number       Type             X           Y           Z
 ---------------------------------------------------------------------
      1          6           0       -1.044427    0.000000    0.000000
      2         15           0        1.044427    0.000000    0.000000
      3          1           0       -2.144470    0.000000    0.000000
 ---------------------------------------------------------------------

 Alpha  occ. eigenvalues --  -78.40613 -10.95772  -7.21675  -5.33636  -5.32950
 Alpha  occ. eigenvalues --   -5.32775  -1.03199  -0.91619  -0.70446  -0.58182
 Alpha  occ. eigenvalues --   -0.56234
 Alpha virt. eigenvalues --   -0.37037  -0.35213  -0.27094  -0.13868  -0.10439
 Alpha virt. eigenvalues --   -0.09619  -0.09327  -0.09075  -0.05323  -0.05161
 Alpha virt. eigenvalues --   -0.00189   0.04332   0.11496   0.14011   0.14061

  Beta  occ. eigenvalues --  -78.40149 -10.95647  -7.21565  -5.32851  -5.32560
  Beta  occ. eigenvalues --   -5.32395  -1.00425  -0.89243  -0.69264  -0.54909
  Beta virt. eigenvalues --   -0.39259  -0.34172  -0.30277  -0.25636  -0.15028
  Beta virt. eigenvalues --   -0.10878  -0.09419  -0.09402  -0.09121  -0.05302
  Beta virt. eigenvalues --   -0.05295  -0.00923   0.04523   0.11218   0.11471

 Mulliken charges and spin densities:
               1          2
     1  C   -0.015773   0.383344
     2  P    0.693602   0.631112
     3  H    0.322171  -0.014455
 Sum of Mulliken charges =   1.00000   1.00000

 Dipole moment (field-independent basis, Debye):
    X=              0.2420    Y=              0.0000    Z=              0.0000  Tot=              0.2420
 Quadrupole moment (field-independent basis, Debye-Ang):
   XX=             -4.0120   YY=            -17.0106   ZZ=            -17.1303
   XY=             -0.0000   XZ=             -0.0000   YZ=             -1.3772

 Normal termination of Gaussian 16 at Mon Apr 21 19:23:53 2025.
