 Gaussian 16, Revision A.03,
 Gaussian 16:  ES64L-G16RevA.03 25-Dec-2016

 --------------------------------------------
 #p opt UM062X/6-311+G** nosymm int=superfine
 --------------------------------------------

 -------------------
 Title Card Required
 -------------------
 Symbolic Z-matrix:
 Charge =  0 Multiplicity = 1

 SCF Done:  E(UM062X) =  -684.900935185     A.U. after   11 cycles
 SCF Done:  E(UM062X) =  -684.901385666     A.U. after   10 cycles
 SCF Done:  E(UM062X) =  -684.901547485     A.U. after   11 cycles
 SCF Done:  E(UM062X) =  -684.901934993     A.U. after   12 cycles
 SCF Done:  E(UM062X) =  -684.902199591     A.U. after   12 cycles
 SCF Done:  E(UM062X) =  -684.902261413     A.U. after   10 cycles
 SCF Done:  E(UM062X) =  -684.902279997     A.U. after   11 cycles
 SCF Done:  E(UM062X) =  -684.902289798     A.U. after   10 cycles
 SCF Done:  E(UM062X) =  -684.902317249     A.U. after   11 cycles
 SCF Done:  E(UM062X) =  -684.902347767     A.U. after   11 cycles
 SCF Done:  E(UM062X) =  -684.898219713     A.U. after   13 cycles
 SCF Done:  E(UM062X) =  -684.902450688     A.U. after   13 cycles
 SCF Done:  E(UM062X) =  -684.902446042     A.U. after   13 cycles
 SCF Done:  E(UM062X) =  -684.902454604     A.U. after   13 cycles
 SCF Done:  E(UM062X) =  -684.902457222     A.U. after    9 cycles
 SCF Done:  E(UM062X) =  -684.902459629     A.U. after   11 cycles
 SCF Done:  E(UM062X) =  -684.902460301     A.U. after   10 cycles
 SCF Done:  E(UM062X) =  -684.902461390     A.U. after   10 cycles
 SCF Done:  E(UM062X) =  -684.902461394     A.U. after    8 cycles
 SCF Done:  E(UM062X) =  -684.902461397     A.U. after    9 cycles
 Optimization completed.
    -- Stationary point found.

                          Input orientation:
 ---------------------------------------------------------------------
 Center     Atomic      Atomic             Coordinates (Angstroms)
 Number     Number       Type             X           Y           Z
 ---------------------------------------------------------------------
      1         15           0       -2.542217    0.000000    0.000000
      2         15           0        2.542217    0.000000    0.000000
      3          1           0        2.429398   -0.843390    1.135518
      4          1           0       -2.431059    0.924806    1.070669
      5          1           0        2.425576   -1.101964   -0.886400
      6          1           0       -2.420551    1.032788   -0.965279
 ---------------------------------------------------------------------

 Alpha  occ. eigenvalues --  -78.04879 -78.04879  -6.87311  -6.87311  -4.98852
 Alpha  occ. eigenvalues --   -4.98852  -4.98737  -4.98737  -4.98555  -4.98555
 Alpha  occ. eigenvalues --   -0.71158  -0.70992  -0.45132  -0.45088  -0.36262
 Alpha  occ. eigenvalues --   -0.36223  -0.23321
 Alpha virt. eigenvalues --   -0.16216   0.01471   0.02804   0.03187   0.03996
 Alpha virt. eigenvalues --    0.04816   0.05778   0.05970   0.06033   0.06070
 Alpha virt. eigenvalues --    0.07813   0.12299   0.17979   0.29312   0.30014

  Beta  occ. eigenvalues --  -78.04879 -78.04879  -6.87311  -6.87311  -4.98852
  Beta  occ. eigenvalues --   -4.98852  -4.98737  -4.98737  -4.98555  -4.98555
  Beta  occ. eigenvalues --   -0.71158  -0.70992  -0.45132  -0.45088  -0.36262
  Beta  occ. eigenvalues --   -0.36223  -0.23321
  Beta virt. eigenvalues --   -0.16216   0.01471   0.02804   0.03187   0.03996
  Beta virt. eigenvalues --    0.04816   0.05778   0.05970   0.06033   0.06070
  Beta virt. eigenvalues --    0.07813   0.12299   0.17979   0.29312   0.30014

 Mulliken charges and spin densities:
               1          2
     1  P    0.014122   0.000000
     2  P    0.014015  -0.000000
     3  H   -0.007403   0.000000
     4  H   -0.007400  -0.000000
     5  H   -0.006685   0.000000
     6  H   -0.006649  -0.000000
 Sum of Mulliken charges =  -0.00000   0.00000

 Dipole moment (field-independent basis, Debye):
    X=              0.0010    Y=              0.0066    Z=              0.1616  Tot=              0.1617
 Quadrupole moment (field-independent basis, Debye-Ang):
   XX=            -29.4869   YY=            -31.2287   ZZ=            -28.5342
   XY=             -4.8881   XZ=              0.1770   YZ=              0.0995

 Normal termination of Gaussian 16 at Mon Apr 21 21:03:33 2025.
