 Gaussian 16, Revision A.03,
 Gaussian 16:  ES64L-G16RevA.03 25-Dec-2016

 --------------------------------------------
 #p opt UM062X/6-311+G** nosymm int=superfine
 --------------------------------------------

 -------------------
 Title Card Required
 -------------------
 Symbolic Z-matrix:
 Charge = -1 Multiplicity = 2

 SCF Done:  E(UM062X) =  -50.7739078509     A.U. after   11 cycles
 SCF Done:  E(UM062X) =  -50.7739090195     A.U. after    7 cycles
 Optimization completed.
    -- Stationary point found.

                          Input orientation:
 ---------------------------------------------------------------------
 Center     Atomic      Atomic             Coordinates (Angstroms)
 Number     Number       Type             X           Y           Z
 ---------------------------------------------------------------------
      1          5           0       -0.816404    0.000000    0.000000
      2          5           0        0.816404    0.000000    0.000000
      3          1           0       -1.999056   -0.000903   -0.000000
      4          1           0        1.999056    0.000903    0.000000
 ---------------------------------------------------------------------

 Alpha  occ. eigenvalues --   -6.83142  -6.83078  -0.36176  -0.30165  -0.19907
 Alpha  occ. eigenvalues --   -0.02840  -0.01258
 Alpha virt. eigenvalues --    0.14248   0.15563   0.18133   0.18669   0.20193
 Alpha virt. eigenvalues --    0.21365   0.21714   0.26091   0.27142   0.28035
 Alpha virt. eigenvalues --    0.32620   0.39499   0.50026   0.55800   0.59370

  Beta  occ. eigenvalues --   -6.83098  -6.83040  -0.33588  -0.29265  -0.19336
  Beta  occ. eigenvalues --    0.00782
  Beta virt. eigenvalues --    0.11442   0.14466   0.14993   0.17195   0.18925
  Beta virt. eigenvalues --    0.19380   0.21026   0.21603   0.23883   0.29854
  Beta virt. eigenvalues --    0.30762   0.33909   0.39901   0.50891   0.56338

 Mulliken charges and spin densities:
               1          2
     1  B   -0.461399   0.525344
     2  B   -0.461399   0.525344
     3  H   -0.038601  -0.025344
     4  H   -0.038601  -0.025344
 Sum of Mulliken charges =  -1.00000   1.00000

 Dipole moment (field-independent basis, Debye):
    X=              0.0000    Y=             -0.0000    Z=             -0.0000  Tot=              0.0000
 Quadrupole moment (field-independent basis, Debye-Ang):
   XX=            -22.4175   YY=            -27.2901   ZZ=            -20.9335
   XY=              0.0043   XZ=              0.0000   YZ=             -0.0000

 Normal termination of Gaussian 16 at Mon Apr 21 17:28:05 2025.
