 Gaussian 16, Revision A.03,
 Gaussian 16:  ES64L-G16RevA.03 25-Dec-2016

 --------------------------------------------
 #p opt UM062X/6-311+G** nosymm int=superfine
 --------------------------------------------

 -------------------
 Title Card Required
 -------------------
 Symbolic Z-matrix:
 Charge =  1 Multiplicity = 2

 SCF Done:  E(UM062X) =  -92.5738273933     A.U. after   32 cycles
 SCF Done:  E(UM062X) =  -92.5741573180     A.U. after   68 cycles
 Optimization completed.
    -- Stationary point found.

                          Input orientation:
 ---------------------------------------------------------------------
 Center     Atomic      Atomic             Coordinates (Angstroms)
 Number     Number       Type             X           Y           Z
 ---------------------------------------------------------------------
      1          6           0       -2.001539    0.000000    0.000000
      2          7           0        2.001539    0.000000    0.000000
      3          1           0       -3.118860    0.000000    0.000000
 ---------------------------------------------------------------------

 Alpha  occ. eigenvalues --  -15.20494 -10.97938  -1.16052  -0.99006  -0.71135
 Alpha  occ. eigenvalues --   -0.68016  -0.65460
 Alpha virt. eigenvalues --   -0.41510  -0.34279  -0.32814  -0.13699  -0.09946
 Alpha virt. eigenvalues --   -0.07764  -0.07009  -0.04166  -0.02141  -0.01910
 Alpha virt. eigenvalues --   -0.01593   0.06615   0.25576   0.35198   0.35442

  Beta  occ. eigenvalues --  -15.17928 -10.98304  -1.04393  -1.01135  -0.66645
  Beta  occ. eigenvalues --   -0.50021
  Beta virt. eigenvalues --   -0.42905  -0.38119  -0.36120  -0.33392  -0.13480
  Beta virt. eigenvalues --   -0.10260  -0.08316  -0.07960  -0.04731  -0.02697
  Beta virt. eigenvalues --   -0.02043  -0.01599   0.04897   0.26216   0.34806

 Mulliken charges and spin densities:
               1          2
     1  C    0.315067  -0.456396
     2  N    0.442169   1.441597
     3  H    0.242764   0.014799
 Sum of Mulliken charges =   1.00000   1.00000

 Dipole moment (field-independent basis, Debye):
    X=             -3.2829    Y=              0.0000    Z=              0.0000  Tot=              3.2829
 Quadrupole moment (field-independent basis, Debye-Ang):
   XX=             19.4453   YY=             -9.6334   ZZ=            -11.0324
   XY=             -0.0000   XZ=             -0.0000   YZ=             -0.5755

 Normal termination of Gaussian 16 at Mon Apr 21 18:32:57 2025.
