 Gaussian 16, Revision A.03,
 Gaussian 16:  ES64L-G16RevA.03 25-Dec-2016

 ---------------------------------------
 #p UM062X/6-311+G** force int=superfine
 ---------------------------------------

 -------------------
 Title Card Required
 -------------------
 Symbolic Z-matrix:
 Charge =  1 Multiplicity = 2

                         Standard orientation:
 ---------------------------------------------------------------------
 Center     Atomic      Atomic             Coordinates (Angstroms)
 Number     Number       Type             X           Y           Z
 ---------------------------------------------------------------------
      1          7           0        0.000000    0.000000    1.405391
      2          7           0        0.000000    0.000000   -1.405391
 ---------------------------------------------------------------------

 SCF Done:  E(UM062X) =  -108.400750415     A.U. after   11 cycles

 Unable to determine electronic state:  partially filled degenerate orbitals.
 Alpha  occ. eigenvalues --  -15.33915 -15.33909  -1.22560  -1.20512  -0.68779
 Alpha  occ. eigenvalues --   -0.68670  -0.66162
 Alpha virt. eigenvalues --   -0.57983  -0.55322  -0.53004  -0.12866  -0.08607
 Alpha virt. eigenvalues --   -0.08483  -0.08427  -0.03271  -0.02989  -0.02767
 Alpha virt. eigenvalues --    0.04450   0.41882   0.48095   0.49377   0.53134

  Beta  occ. eigenvalues --  -15.33427 -15.33422  -1.18808  -1.16868  -0.66985
  Beta  occ. eigenvalues --   -0.64393
  Beta virt. eigenvalues --   -0.53492  -0.51020  -0.46333  -0.45058  -0.14051
  Beta virt. eigenvalues --   -0.09096  -0.08980  -0.08586  -0.03733  -0.03155
  Beta virt. eigenvalues --   -0.03016   0.02991   0.42000   0.49335   0.49558

 Mulliken charges and spin densities:
               1          2
     1  N    0.500000   0.500000
     2  N    0.500000   0.500000
 Sum of Mulliken charges =   1.00000   1.00000

 Dipole moment (field-independent basis, Debye):
    X=              0.0000    Y=             -0.0000    Z=             -0.0000  Tot=              0.0000
 Quadrupole moment (field-independent basis, Debye-Ang):
   XX=             -8.5658   YY=            -10.0166   ZZ=              1.2323
   XY=              0.0000   XZ=             -0.0000   YZ=              0.0000

 Optimization completed.
    -- Stationary point found.
 Normal termination of Gaussian 16 at Wed Feb 26 13:54:12 2025.
