 Gaussian 16, Revision A.03,
 Gaussian 16:  ES64L-G16RevA.03 25-Dec-2016

 --------------------------------------------
 #p opt UM062X/6-311+G** nosymm int=superfine
 --------------------------------------------

 -------------------
 Title Card Required
 -------------------
 Symbolic Z-matrix:
 Charge =  0 Multiplicity = 1

 SCF Done:  E(UM062X) =  -581.227424682     A.U. after   10 cycles
 SCF Done:  E(UM062X) =  -581.227674057     A.U. after    8 cycles
 SCF Done:  E(UM062X) =  -581.227741143     A.U. after    9 cycles
 SCF Done:  E(UM062X) =  -581.227607589     A.U. after    9 cycles
 SCF Done:  E(UM062X) =  -581.227714587     A.U. after    9 cycles
 SCF Done:  E(UM062X) =  -581.227741590     A.U. after    9 cycles
 SCF Done:  E(UM062X) =  -581.227749810     A.U. after    8 cycles
 Optimization completed.
    -- Stationary point found.

                          Input orientation:
 ---------------------------------------------------------------------
 Center     Atomic      Atomic             Coordinates (Angstroms)
 Number     Number       Type             X           Y           Z
 ---------------------------------------------------------------------
      1         14           0       -1.287518    0.000000    0.000000
      2         14           0        1.287518    0.000000    0.000000
      3          1           0       -2.035156   -1.266376    0.000595
      4          1           0        2.035156    1.266376   -0.000592
      5          1           0       -2.035190    1.266356   -0.000155
      6          1           0        2.035190   -1.266356    0.000292
 ---------------------------------------------------------------------

 Alpha  occ. eigenvalues --  -67.02649 -67.02649  -5.57303  -5.57301  -3.88531
 Alpha  occ. eigenvalues --   -3.88528  -3.88357  -3.88338  -3.88307  -3.88305
 Alpha  occ. eigenvalues --   -0.61636  -0.57307  -0.43934  -0.42645  -0.35202
 Alpha  occ. eigenvalues --   -0.22448
 Alpha virt. eigenvalues --   -0.06651  -0.01942   0.02218   0.03200   0.03991
 Alpha virt. eigenvalues --    0.04214   0.04856   0.05219   0.05587   0.07093
 Alpha virt. eigenvalues --    0.07443   0.08035   0.12194   0.21829   0.25697

  Beta  occ. eigenvalues --  -67.02649 -67.02649  -5.57303  -5.57301  -3.88531
  Beta  occ. eigenvalues --   -3.88528  -3.88357  -3.88338  -3.88307  -3.88305
  Beta  occ. eigenvalues --   -0.61636  -0.57307  -0.43934  -0.42645  -0.35202
  Beta  occ. eigenvalues --   -0.22448
  Beta virt. eigenvalues --   -0.06651  -0.01942   0.02218   0.03200   0.03991
  Beta virt. eigenvalues --    0.04214   0.04856   0.05219   0.05587   0.07093
  Beta virt. eigenvalues --    0.07443   0.08035   0.12194   0.21829   0.25697

 Mulliken charges and spin densities:
               1          2
     1  Si   0.115182  -0.000000
     2  Si   0.115182   0.000000
     3  H   -0.057592   0.000000
     4  H   -0.057592  -0.000000
     5  H   -0.057590   0.000000
     6  H   -0.057590  -0.000000
 Sum of Mulliken charges =   0.00000   0.00000

 Dipole moment (field-independent basis, Debye):
    X=              0.0000    Y=              0.0000    Z=              0.0000  Tot=              0.0000
 Quadrupole moment (field-independent basis, Debye-Ang):
   XX=            -26.7962   YY=            -29.4252   ZZ=            -33.7857
   XY=             -0.0001   XZ=             -0.0002   YZ=             -0.0014

 Normal termination of Gaussian 16 at Mon Apr 21 20:30:33 2025.
