 Gaussian 16, Revision A.03,
 Gaussian 16:  ES64L-G16RevA.03 25-Dec-2016

 --------------------------------------------
 #p opt UM062X/6-311+G** nosymm int=superfine
 --------------------------------------------

 -------------------
 Title Card Required
 -------------------
 Symbolic Z-matrix:
 Charge =  1 Multiplicity = 2

 SCF Done:  E(UM062X) =  -79.3298380494     A.U. after   10 cycles
 SCF Done:  E(UM062X) =  -79.3301719064     A.U. after    9 cycles
 Optimization completed.
    -- Stationary point found.

                          Input orientation:
 ---------------------------------------------------------------------
 Center     Atomic      Atomic             Coordinates (Angstroms)
 Number     Number       Type             X           Y           Z
 ---------------------------------------------------------------------
      1          6           0       -1.669206    0.000000    0.000000
      2          6           0        1.669206    0.000000    0.000000
      3          1           0        1.710619   -0.937651    0.542694
      4          1           0       -1.709137   -0.938761   -0.540885
      5          1           0        1.709991    0.938851    0.540665
      6          1           0        1.709157   -0.001165   -1.083430
      7          1           0       -1.710652    0.937752   -0.542519
      8          1           0       -1.709943    0.000943    1.083401
 ---------------------------------------------------------------------

 Alpha  occ. eigenvalues --  -10.84613 -10.84611  -1.03305  -1.02399  -0.74147
 Alpha  occ. eigenvalues --   -0.74146  -0.73744  -0.73743  -0.50698
 Alpha virt. eigenvalues --   -0.36461  -0.13560  -0.10209  -0.10061  -0.10060
 Alpha virt. eigenvalues --   -0.06245  -0.06245  -0.04829  -0.03266  -0.01390
 Alpha virt. eigenvalues --   -0.01388   0.01271   0.01274   0.04172   0.07912

  Beta  occ. eigenvalues --  -10.84410 -10.84409  -1.00559  -0.99956  -0.73635
  Beta  occ. eigenvalues --   -0.73634  -0.73230  -0.73230
  Beta virt. eigenvalues --   -0.32652  -0.26153  -0.15550  -0.11141  -0.11140
  Beta virt. eigenvalues --   -0.10079  -0.06352  -0.06352  -0.05159  -0.02358
  Beta virt. eigenvalues --   -0.01731  -0.01728   0.01565   0.01567   0.04880

 Mulliken charges and spin densities:
               1          2
     1  C   -0.267675   0.562848
     2  C   -0.267678   0.562851
     3  H    0.255915  -0.020947
     4  H    0.255868  -0.020952
     5  H    0.255894  -0.020950
     6  H    0.255867  -0.020952
     7  H    0.255916  -0.020947
     8  H    0.255892  -0.020951
 Sum of Mulliken charges =   1.00000   1.00000

 Dipole moment (field-independent basis, Debye):
    X=             -0.0000    Y=             -0.0000    Z=             -0.0001  Tot=              0.0001
 Quadrupole moment (field-independent basis, Debye-Ang):
   XX=              2.2997   YY=            -11.0680   ZZ=            -11.0680
   XY=             -0.0016   XZ=              0.0010   YZ=              0.0000

 Normal termination of Gaussian 16 at Wed Nov 13 12:46:04 2024.
