 Gaussian 16, Revision A.03,
 Gaussian 16:  ES64L-G16RevA.03 25-Dec-2016

 --------------------------------------------
 #p opt UM062X/6-311+G** nosymm int=superfine
 --------------------------------------------

 -------------------
 Title Card Required
 -------------------
 Symbolic Z-matrix:
 Charge =  0 Multiplicity = 1

 SCF Done:  E(UM062X) =  -79.4476381292     A.U. after   10 cycles
 SCF Done:  E(UM062X) =  -79.4908271878     A.U. after    8 cycles
 SCF Done:  E(UM062X) =  -79.5166858900     A.U. after    9 cycles
 SCF Done:  E(UM062X) =  -79.5169386634     A.U. after    7 cycles
 Optimization completed.
    -- Stationary point found.

                          Input orientation:
 ---------------------------------------------------------------------
 Center     Atomic      Atomic             Coordinates (Angstroms)
 Number     Number       Type             X           Y           Z
 ---------------------------------------------------------------------
      1          6           0       -0.526847    0.000000    0.000000
      2          6           0        0.526901    0.000000    0.000000
      3          1           0        1.043038   -0.851579    0.492762
      4          1           0       -1.042952   -0.852602   -0.491073
      5          1           0        1.043009    0.852604    0.491065
      6          1           0        1.043002   -0.000904   -0.983913
      7          1           0       -1.042984    0.851574   -0.492772
      8          1           0       -1.042952    0.000899    0.983910
 ---------------------------------------------------------------------

 Alpha  occ. eigenvalues --  -10.49948 -10.49110  -0.97417  -0.67228  -0.56715
 Alpha  occ. eigenvalues --   -0.56714  -0.53296  -0.33414  -0.33412
 Alpha virt. eigenvalues --    0.01978   0.04150   0.04390   0.04390   0.08576
 Alpha virt. eigenvalues --    0.09022   0.09022   0.14277   0.17935   0.17936
 Alpha virt. eigenvalues --    0.20422   0.20423   0.23896   0.27699   0.40410

  Beta  occ. eigenvalues --  -10.49948 -10.49110  -0.97417  -0.67228  -0.56715
  Beta  occ. eigenvalues --   -0.56714  -0.53296  -0.33414  -0.33412
  Beta virt. eigenvalues --    0.01978   0.04150   0.04390   0.04390   0.08576
  Beta virt. eigenvalues --    0.09022   0.09022   0.14277   0.17935   0.17936
  Beta virt. eigenvalues --    0.20422   0.20423   0.23896   0.27699   0.40410

 Mulliken charges and spin densities:
               1          2
     1  C   -0.414640  -0.000000
     2  C   -0.414640   0.000000
     3  H    0.138217  -0.000000
     4  H    0.138211   0.000000
     5  H    0.138211  -0.000000
     6  H    0.138212  -0.000000
     7  H    0.138217   0.000000
     8  H    0.138212   0.000000
 Sum of Mulliken charges =  -0.00000   0.00000

 Dipole moment (field-independent basis, Debye):
    X=              0.0000    Y=             -0.0000    Z=             -0.0000  Tot=              0.0000
 Quadrupole moment (field-independent basis, Debye-Ang):
   XX=            -15.6780   YY=            -14.9429   ZZ=            -14.9432
   XY=             -0.0001   XZ=              0.0000   YZ=             -0.0002

 Normal termination of Gaussian 16 at Tue Nov 19 11:39:06 2024.
