 Gaussian 16, Revision A.03,
 Gaussian 16:  ES64L-G16RevA.03 25-Dec-2016

 --------------------------------
 #p UM062X/6-311+G** Pop=NBO Read
 --------------------------------

 ------------
 NBO Analysis
 ------------
 Symbolic Z-matrix:
 Charge =  0 Multiplicity = 1

                         Standard orientation:
 ---------------------------------------------------------------------
 Center     Atomic      Atomic             Coordinates (Angstroms)
 Number     Number       Type             X           Y           Z
 ---------------------------------------------------------------------
      1          8           0        0.000000    0.711938   -0.053208
      2          8           0       -0.000000   -0.711938   -0.053208
      3          1           0       -0.815009    0.901722    0.425664
      4          1           0        0.815009   -0.901722    0.425664
 ---------------------------------------------------------------------

 SCF Done:  E(UM062X) =  -151.489367978     A.U. after   11 cycles

 The electronic state is 1-A.
 Alpha  occ. eigenvalues --  -19.70776 -19.70759  -1.27245  -1.02262  -0.62356
 Alpha  occ. eigenvalues --   -0.59497  -0.51680  -0.41506  -0.36789
 Alpha virt. eigenvalues --    0.05375   0.07790   0.13519   0.16665   0.19204
 Alpha virt. eigenvalues --    0.19672   0.21500   0.22276   0.24846   0.31439
 Alpha virt. eigenvalues --    0.34605   0.96833   1.00174   1.08414   1.13248

  Beta  occ. eigenvalues --  -19.70776 -19.70759  -1.27245  -1.02262  -0.62356
  Beta  occ. eigenvalues --   -0.59497  -0.51680  -0.41506  -0.36789
  Beta virt. eigenvalues --    0.05375   0.07790   0.13519   0.16665   0.19204
  Beta virt. eigenvalues --    0.19672   0.21500   0.22276   0.24846   0.31439
  Beta virt. eigenvalues --    0.34605   0.96833   1.00174   1.08414   1.13248

 Mulliken charges and spin densities:
               1          2
     1  O   -0.293195   0.000000
     2  O   -0.293195   0.000000
     3  H    0.293195   0.000000
     4  H    0.293195   0.000000
 Sum of Mulliken charges =   0.00000   0.00000

 Dipole moment (field-independent basis, Debye):
    X=              0.0000    Y=             -0.0000    Z=              1.8425  Tot=              1.8425
 Quadrupole moment (field-independent basis, Debye-Ang):
   XX=             -9.5395   YY=            -11.6944   ZZ=            -12.1188
   XY=             -3.3135   XZ=              0.0000   YZ=             -0.0000

 Summary of Natural Population Analysis:

                                       Natural Population
                Natural  -----------------------------------------------
    Atom  No    Charge         Core      Valence    Rydberg      Total
 -----------------------------------------------------------------------
      O    1   -0.24911      0.99995     3.23945    0.00971     4.24911
      O    2   -0.24911      0.99995     3.23945    0.00971     4.24911
      H    3    0.24911      0.00000     0.24781    0.00308     0.25089
      H    4    0.24911      0.00000     0.24781    0.00308     0.25089
 =======================================================================
   * Total *    0.00000      1.99989     6.97453    0.02558     9.00000

 Normal termination of Gaussian 16 at Wed Apr 16 04:51:04 2025.
