 Gaussian 16, Revision A.03,
 Gaussian 16:  ES64L-G16RevA.03 25-Dec-2016

 --------------------------------------------
 #p opt UM062X/6-311+G** nosymm int=superfine
 --------------------------------------------

 -------------------
 Title Card Required
 -------------------
 Symbolic Z-matrix:
 Charge =  1 Multiplicity = 2

 SCF Done:  E(UM062X) =  -582.166789305     A.U. after   10 cycles
 SCF Done:  E(UM062X) =  -582.166950419     A.U. after    8 cycles
 SCF Done:  E(UM062X) =  -582.166960039     A.U. after    8 cycles
 Optimization completed.
    -- Stationary point found.

                          Input orientation:
 ---------------------------------------------------------------------
 Center     Atomic      Atomic             Coordinates (Angstroms)
 Number     Number       Type             X           Y           Z
 ---------------------------------------------------------------------
      1         14           0       -1.626292    0.000000    0.000000
      2         14           0        1.626292    0.000000    0.000000
      3          1           0        1.795612   -1.455356    0.000011
      4          1           0       -1.795401   -0.727576    1.260454
      5          1           0        1.795897    0.727708   -1.260309
      6          1           0        1.795254    0.727668    1.260421
      7          1           0       -1.795637    1.455353   -0.000094
      8          1           0       -1.795725   -0.727807   -1.260276
 ---------------------------------------------------------------------

 Alpha  occ. eigenvalues --  -67.23759 -67.23759  -5.78609  -5.78608  -4.10302
 Alpha  occ. eigenvalues --   -4.10300  -4.09487  -4.09487  -4.09487  -4.09487
 Alpha  occ. eigenvalues --   -0.83794  -0.81335  -0.63247  -0.63247  -0.62297
 Alpha  occ. eigenvalues --   -0.62297  -0.48336
 Alpha virt. eigenvalues --   -0.25320  -0.14894  -0.11847  -0.11452  -0.11451
 Alpha virt. eigenvalues --   -0.10352  -0.10352  -0.09868  -0.08633  -0.08633
 Alpha virt. eigenvalues --   -0.07638  -0.06466  -0.06465  -0.03697   0.00778

  Beta  occ. eigenvalues --  -67.23496 -67.23496  -5.78537  -5.78536  -4.09656
  Beta  occ. eigenvalues --   -4.09655  -4.09399  -4.09399  -4.09399  -4.09399
  Beta  occ. eigenvalues --   -0.81352  -0.79863  -0.62886  -0.62885  -0.62071
  Beta  occ. eigenvalues --   -0.62070
  Beta virt. eigenvalues --   -0.30154  -0.20377  -0.14673  -0.11586  -0.11585
  Beta virt. eigenvalues --   -0.10882  -0.10477  -0.10477  -0.09644  -0.07979
  Beta virt. eigenvalues --   -0.07979  -0.06248  -0.06248  -0.05995  -0.03236

 Mulliken charges and spin densities:
               1          2
     1  Si   0.499497   0.550654
     2  Si   0.499497   0.550654
     3  H    0.000168  -0.016891
     4  H    0.000164  -0.016879
     5  H    0.000176  -0.016889
     6  H    0.000159  -0.016874
     7  H    0.000168  -0.016891
     8  H    0.000170  -0.016884
 Sum of Mulliken charges =   1.00000   1.00000

 Dipole moment (field-independent basis, Debye):
    X=              0.0000    Y=              0.0000    Z=             -0.0000  Tot=              0.0000
 Quadrupole moment (field-independent basis, Debye-Ang):
   XX=             -8.4652   YY=            -25.8651   ZZ=            -25.8651
   XY=             -0.0001   XZ=              0.0000   YZ=              0.0000

 Normal termination of Gaussian 16 at Mon Apr 21 20:14:25 2025.
