 Gaussian 16, Revision A.03,
 Gaussian 16:  ES64L-G16RevA.03 25-Dec-2016

 --------------------------------------------
 #p opt UM062X/6-311+G** nosymm int=superfine
 --------------------------------------------

 -------------------
 Title Card Required
 -------------------
 Symbolic Z-matrix:
 Charge =  1 Multiplicity = 2

 SCF Done:  E(UM062X) =  -92.7557177569     A.U. after   18 cycles
 SCF Done:  E(UM062X) =  -92.7558999387     A.U. after   14 cycles
 Optimization completed.
    -- Stationary point found.

                          Input orientation:
 ---------------------------------------------------------------------
 Center     Atomic      Atomic             Coordinates (Angstroms)
 Number     Number       Type             X           Y           Z
 ---------------------------------------------------------------------
      1          6           0       -0.826540    0.000000    0.000000
      2          7           0        0.826540    0.000000    0.000000
      3          1           0       -1.937904    0.000000    0.000000
 ---------------------------------------------------------------------

 Alpha  occ. eigenvalues --  -15.24816 -11.08881  -1.25814  -1.06487  -0.81352
 Alpha  occ. eigenvalues --   -0.73113  -0.68868
 Alpha virt. eigenvalues --   -0.43610  -0.40880  -0.30069  -0.16140  -0.10733
 Alpha virt. eigenvalues --   -0.10572  -0.10308  -0.05123  -0.01702  -0.01366
 Alpha virt. eigenvalues --    0.02589   0.07512   0.25524   0.28926   0.29197

  Beta  occ. eigenvalues --  -15.24354 -11.08629  -1.21338  -1.04485  -0.79661
  Beta  occ. eigenvalues --   -0.68144
  Beta virt. eigenvalues --   -0.47111  -0.39396  -0.33968  -0.28247  -0.16903
  Beta virt. eigenvalues --   -0.10807  -0.10666  -0.10648  -0.05465  -0.02360
  Beta virt. eigenvalues --   -0.01878   0.02671   0.06328   0.25568   0.27548

 Mulliken charges and spin densities:
               1          2
     1  C    0.268558   0.471367
     2  N    0.364017   0.544993
     3  H    0.367425  -0.016360
 Sum of Mulliken charges =   1.00000   1.00000

 Dipole moment (field-independent basis, Debye):
    X=             -4.0400    Y=             -0.0000    Z=              0.0000  Tot=              4.0400
 Quadrupole moment (field-independent basis, Debye-Ang):
   XX=             -1.1847   YY=            -10.4410   ZZ=             -9.6937
   XY=             -0.0000   XZ=              0.0000   YZ=              0.7907

 Normal termination of Gaussian 16 at Mon Apr 21 18:33:17 2025.
