 Gaussian 16, Revision A.03,
 Gaussian 16:  ES64L-G16RevA.03 25-Dec-2016

 ---------------------------------------
 #p UM062X/6-311+G** force int=superfine
 ---------------------------------------

 -------------------
 Title Card Required
 -------------------
 Symbolic Z-matrix:
 Charge =  1 Multiplicity = 2

                         Standard orientation:
 ---------------------------------------------------------------------
 Center     Atomic      Atomic             Coordinates (Angstroms)
 Number     Number       Type             X           Y           Z
 ---------------------------------------------------------------------
      1          6           0       -0.065912    0.292667   -1.365575
      2          6           0        0.065898   -0.292664    1.365576
      3          1           0       -0.259275   -1.317174    1.225181
      4          1           0        0.659378   -0.469607   -1.626271
      5          1           0       -0.659161    0.469602    1.626938
      6          1           0        1.124914   -0.068952    1.424756
      7          1           0        0.259102    1.317231   -1.225195
      8          1           0       -1.124875    0.068879   -1.425412
 ---------------------------------------------------------------------

 SCF Done:  E(UM062X) =  -79.3469443570     A.U. after    9 cycles

 The electronic state is 2-A.
 Alpha  occ. eigenvalues --  -10.85359 -10.85355  -1.04994  -1.02637  -0.75386
 Alpha  occ. eigenvalues --   -0.75386  -0.74189  -0.74189  -0.54508
 Alpha virt. eigenvalues --   -0.34018  -0.14592  -0.10428  -0.10427  -0.10079
 Alpha virt. eigenvalues --   -0.06208  -0.06208  -0.05776  -0.03111  -0.02942
 Alpha virt. eigenvalues --   -0.02940   0.01462   0.01464   0.05379   0.07495

  Beta  occ. eigenvalues --  -10.85163 -10.85163  -1.01932  -1.00251  -0.74765
  Beta  occ. eigenvalues --   -0.74764  -0.73674  -0.73673
  Beta virt. eigenvalues --   -0.33104  -0.24588  -0.15477  -0.11120  -0.11120
  Beta virt. eigenvalues --   -0.09778  -0.06509  -0.06508  -0.05794  -0.03026
  Beta virt. eigenvalues --   -0.03023  -0.02313   0.01811   0.01813   0.06079

 Mulliken charges and spin densities:
               1          2
     1  C   -0.276898   0.572450
     2  C   -0.276898   0.572450
     3  H    0.258993  -0.024148
     4  H    0.258933  -0.024155
     5  H    0.258960  -0.024159
     6  H    0.258945  -0.024143
     7  H    0.258994  -0.024149
     8  H    0.258970  -0.024147
 Sum of Mulliken charges =   1.00000   1.00000

 Dipole moment (field-independent basis, Debye):
    X=              0.0000    Y=             -0.0000    Z=             -0.0000  Tot=              0.0000
 Quadrupole moment (field-independent basis, Debye-Ang):
   XX=            -10.9706   YY=            -10.5885   ZZ=             -2.2456
   XY=             -0.0904   XZ=              0.4217   YZ=             -1.8757

 Normal termination of Gaussian 16 at Wed Nov 13 13:02:39 2024.
