 Gaussian 16, Revision A.03,
 Gaussian 16:  ES64L-G16RevA.03 25-Dec-2016

 --------------------------------------------
 #p opt UM062X/6-311+G** nosymm int=superfine
 --------------------------------------------

 -------------------
 Title Card Required
 -------------------
 Symbolic Z-matrix:
 Charge =  1 Multiplicity = 1

 SCF Done:  E(UM062X) =  -289.677273027     A.U. after    9 cycles
 SCF Done:  E(UM062X) =  -289.677357564     A.U. after    7 cycles
 SCF Done:  E(UM062X) =  -289.677358000     A.U. after    6 cycles
 Optimization completed.
    -- Stationary point found.

                          Input orientation:
 ---------------------------------------------------------------------
 Center     Atomic      Atomic             Coordinates (Angstroms)
 Number     Number       Type             X           Y           Z
 ---------------------------------------------------------------------
      1         14           0       -1.099891    0.007418    0.000000
      2          1           0       -1.677483   -1.382047    0.000000
 ---------------------------------------------------------------------

 Alpha  occ. eigenvalues --  -67.38405  -5.92408  -4.23286  -4.23286  -4.22586
 Alpha  occ. eigenvalues --   -0.83711  -0.60505
 Alpha virt. eigenvalues --   -0.34752  -0.34752  -0.15506  -0.14046  -0.09904
 Alpha virt. eigenvalues --   -0.09674  -0.09674   0.10088   0.11256   0.11256
 Alpha virt. eigenvalues --    0.17067   0.20712   0.30130   0.30130   0.31295

  Beta  occ. eigenvalues --  -67.38405  -5.92408  -4.23286  -4.23286  -4.22586
  Beta  occ. eigenvalues --   -0.83711  -0.60505
  Beta virt. eigenvalues --   -0.34752  -0.34752  -0.15506  -0.14046  -0.09904
  Beta virt. eigenvalues --   -0.09674  -0.09674   0.10088   0.11256   0.11256
  Beta virt. eigenvalues --    0.17067   0.20712   0.30130   0.30130   0.31295

 Mulliken charges and spin densities:
               1          2
     1  Si   1.046466  -0.000000
     2  H   -0.046466  -0.000000
 Sum of Mulliken charges =   1.00000  -0.00000

 Dipole moment (field-independent basis, Debye):
    X=             -5.5740    Y=             -0.6643    Z=              0.0000  Tot=              5.6134
 Quadrupole moment (field-independent basis, Debye-Ang):
   XX=             -2.3714   YY=            -11.1334   ZZ=             -8.3415
   XY=             -0.4279   XZ=             -0.0000   YZ=             -0.0000

 Normal termination of Gaussian 16 at Wed Apr 16 08:54:07 2025.
