 Gaussian 16, Revision A.03,
 Gaussian 16:  ES64L-G16RevA.03 25-Dec-2016

 ---------------------------------------------------
 #p UM062X/6-311+G** force int=superfine pop=saveNBO
 ---------------------------------------------------

 -------------------
 Title Card Required
 -------------------
 Symbolic Z-matrix:
 Charge =  0 Multiplicity = 1

                         Standard orientation:
 ---------------------------------------------------------------------
 Center     Atomic      Atomic             Coordinates (Angstroms)
 Number     Number       Type             X           Y           Z
 ---------------------------------------------------------------------
      1         16           0        0.000000    0.000000    2.125200
      2         16           0        0.000000    0.000000   -2.125200
 ---------------------------------------------------------------------

 SCF Done:  E(UM062X) =  -796.020990985     A.U. after    9 cycles

 Unable to determine electronic state:  partially filled degenerate orbitals.
 Alpha  occ. eigenvalues --  -89.98601 -89.98601  -8.34424  -8.34424  -6.26450
 Alpha  occ. eigenvalues --   -6.26450  -6.26433  -6.26432  -6.25610  -6.25610
 Alpha  occ. eigenvalues --   -0.77962  -0.77454  -0.34781  -0.34479  -0.31818
 Alpha  occ. eigenvalues --   -0.30824
 Alpha virt. eigenvalues --   -0.23989  -0.22927   0.02910   0.03896   0.04662
 Alpha virt. eigenvalues --    0.05079   0.06999   0.07071   0.07436   0.12031
 Alpha virt. eigenvalues --    0.30280   0.32752   0.33586   0.35479   0.36345

  Beta  occ. eigenvalues --  -89.98601 -89.98601  -8.34424  -8.34424  -6.26450
  Beta  occ. eigenvalues --   -6.26450  -6.26433  -6.26432  -6.25610  -6.25610
  Beta  occ. eigenvalues --   -0.77962  -0.77454  -0.34781  -0.34479  -0.31818
  Beta  occ. eigenvalues --   -0.30824
  Beta virt. eigenvalues --   -0.23989  -0.22927   0.02910   0.03896   0.04662
  Beta virt. eigenvalues --    0.05079   0.06999   0.07071   0.07436   0.12031
  Beta virt. eigenvalues --    0.30280   0.32752   0.33586   0.35479   0.36345

 Mulliken charges and spin densities:
               1          2
     1  S   -0.000000  -0.000000
     2  S   -0.000000  -0.000000
 Sum of Mulliken charges =  -0.00000  -0.00000

 Dipole moment (field-independent basis, Debye):
    X=             -0.0000    Y=             -0.0000    Z=              0.0000  Tot=              0.0000
 Quadrupole moment (field-independent basis, Debye-Ang):
   XX=            -30.4085   YY=            -25.3607   ZZ=            -22.8121
   XY=              0.0000   XZ=             -0.0000   YZ=              0.0000

 Summary of Natural Population Analysis:

                                       Natural Population
                Natural  -----------------------------------------------
    Atom  No    Charge         Core      Valence    Rydberg      Total
 -----------------------------------------------------------------------
      S    1   -0.00000      5.00000     2.99943    0.00058     8.00000
      S    2   -0.00000      5.00000     2.99943    0.00058     8.00000
 =======================================================================
   * Total *   -0.00000      9.99999     5.99886    0.00115    16.00000

 Normal termination of Gaussian 16 at Mon Apr 21 20:08:43 2025.
