 Gaussian 16, Revision A.03,
 Gaussian 16:  ES64L-G16RevA.03 25-Dec-2016

 --------------------------------------------
 #p opt UM062X/6-311+G** nosymm int=superfine
 --------------------------------------------

 -------------------
 Title Card Required
 -------------------
 Symbolic Z-matrix:
 Charge =  1 Multiplicity = 2

 SCF Done:  E(UM062X) =  -76.8976590971     A.U. after    9 cycles
 SCF Done:  E(UM062X) =  -76.8988957529     A.U. after    9 cycles
 SCF Done:  E(UM062X) =  -76.8989006794     A.U. after    6 cycles
 Optimization completed.
    -- Stationary point found.

                          Input orientation:
 ---------------------------------------------------------------------
 Center     Atomic      Atomic             Coordinates (Angstroms)
 Number     Number       Type             X           Y           Z
 ---------------------------------------------------------------------
      1          6           0       -0.639983    0.000000    0.000000
      2          6           0        0.639983    0.000000    0.000000
      3          1           0       -1.722181    0.000000   -0.000001
      4          1           0        1.722181   -0.000000    0.000001
 ---------------------------------------------------------------------

 Alpha  occ. eigenvalues --  -10.94813 -10.94639  -1.21532  -0.97352  -0.89285
 Alpha  occ. eigenvalues --   -0.71926  -0.69289
 Alpha virt. eigenvalues --   -0.28326  -0.26312  -0.15929  -0.14480  -0.11485
 Alpha virt. eigenvalues --   -0.10208  -0.09956  -0.06875  -0.04855  -0.04430
 Alpha virt. eigenvalues --    0.02254   0.04538   0.15015   0.18992   0.29605

  Beta  occ. eigenvalues --  -10.94568 -10.94418  -1.16809  -0.95754  -0.88743
  Beta  occ. eigenvalues --   -0.66822
  Beta virt. eigenvalues --   -0.45704  -0.24687  -0.21766  -0.15614  -0.14925
  Beta virt. eigenvalues --   -0.11625  -0.10480  -0.10187  -0.06413  -0.04314
  Beta virt. eigenvalues --   -0.03725   0.01972   0.04765   0.15580   0.19852

 Mulliken charges and spin densities:
               1          2
     1  C    0.185330   0.519419
     2  C    0.185332   0.519418
     3  H    0.314669  -0.019418
     4  H    0.314669  -0.019418
 Sum of Mulliken charges =   1.00000   1.00000

 Dipole moment (field-independent basis, Debye):
    X=              0.0000    Y=             -0.0000    Z=              0.0000  Tot=              0.0000
 Quadrupole moment (field-independent basis, Debye-Ang):
   XX=             -0.2517   YY=            -10.6281   ZZ=            -10.6378
   XY=             -0.0000   XZ=              0.0000   YZ=             -0.9171

 Normal termination of Gaussian 16 at Tue Nov 19 13:01:56 2024.
