 Gaussian 16, Revision A.03,
 Gaussian 16:  ES64L-G16RevA.03 25-Dec-2016

 --------------------------------------------
 #p opt UM062X/6-311+G** nosymm int=superfine
 --------------------------------------------

 -------------------
 Title Card Required
 -------------------
 Symbolic Z-matrix:
 Charge =  0 Multiplicity = 1

 SCF Done:  E(UM062X) =  -79.7968900807     A.U. after    8 cycles
 SCF Done:  E(UM062X) =  -79.7969374288     A.U. after    7 cycles
 SCF Done:  E(UM062X) =  -79.7969384104     A.U. after    6 cycles
 Optimization completed.
    -- Stationary point found.

                          Input orientation:
 ---------------------------------------------------------------------
 Center     Atomic      Atomic             Coordinates (Angstroms)
 Number     Number       Type             X           Y           Z
 ---------------------------------------------------------------------
      1          6           0       -0.755912    0.000000    0.000000
      2          6           0        0.755989    0.000000    0.000000
      3          1           0        1.154580   -0.880029    0.509231
      4          1           0       -1.154493   -0.881028   -0.507510
      5          1           0        1.154571    0.881028    0.507509
      6          1           0        1.154569   -0.000987   -1.016751
      7          1           0       -1.154503    0.880029   -0.509232
      8          1           0       -1.154492    0.000986    1.016750
 ---------------------------------------------------------------------

 Alpha  occ. eigenvalues --  -10.52071 -10.52031  -0.85143  -0.69938  -0.50361
 Alpha  occ. eigenvalues --   -0.50360  -0.43051  -0.40118  -0.40117
 Alpha virt. eigenvalues --    0.02180   0.04108   0.05464   0.05464   0.08784
 Alpha virt. eigenvalues --    0.08784   0.08909   0.13951   0.18779   0.18779
 Alpha virt. eigenvalues --    0.21025   0.21025   0.24132   0.27415   0.29543

  Beta  occ. eigenvalues --  -10.52071 -10.52031  -0.85143  -0.69938  -0.50361
  Beta  occ. eigenvalues --   -0.50360  -0.43051  -0.40118  -0.40117
  Beta virt. eigenvalues --    0.02180   0.04108   0.05464   0.05464   0.08784
  Beta virt. eigenvalues --    0.08784   0.08909   0.13951   0.18779   0.18779
  Beta virt. eigenvalues --    0.21025   0.21025   0.24132   0.27415   0.29543

 Mulliken charges and spin densities:
               1          2
     1  C   -0.468440  -0.000000
     2  C   -0.468440   0.000000
     3  H    0.156147  -0.000000
     4  H    0.156146   0.000000
     5  H    0.156146  -0.000000
     6  H    0.156147  -0.000000
     7  H    0.156147   0.000000
     8  H    0.156147   0.000000
 Sum of Mulliken charges =  -0.00000   0.00000

 Dipole moment (field-independent basis, Debye):
    X=             -0.0000    Y=             -0.0000    Z=             -0.0000  Tot=              0.0000
 Quadrupole moment (field-independent basis, Debye-Ang):
   XX=            -15.6309   YY=            -14.9675   ZZ=            -14.9675
   XY=             -0.0000   XZ=              0.0000   YZ=             -0.0000

 Normal termination of Gaussian 16 at Tue Nov 19 11:53:22 2024.
