 Gaussian 16, Revision A.03,
 Gaussian 16:  ES64L-G16RevA.03 25-Dec-2016

 ---------------------------------------
 #p UM062X/6-311+G** force int=superfine
 ---------------------------------------

 -------------------
 Title Card Required
 -------------------
 Symbolic Z-matrix:
 Charge =  1 Multiplicity = 2

                         Standard orientation:
 ---------------------------------------------------------------------
 Center     Atomic      Atomic             Coordinates (Angstroms)
 Number     Number       Type             X           Y           Z
 ---------------------------------------------------------------------
      1          6           0        0.000000    0.431204    0.000000
      2          6           0       -0.000000   -0.431204    0.000000
      3          1           0       -0.788328    1.248270    0.000000
      4          1           0        0.794678    1.243765    0.000000
      5          1           0        0.788328   -1.248270    0.000000
      6          1           0       -0.794678   -1.243765    0.000000
 ---------------------------------------------------------------------

 SCF Done:  E(UM062X) =  -77.5514834413     A.U. after   10 cycles

 The electronic state is 2-AG.
 Alpha  occ. eigenvalues --  -10.82137 -10.77731  -1.25302  -0.96207  -0.89704
 Alpha  occ. eigenvalues --   -0.88647  -0.76824  -0.61856
 Alpha virt. eigenvalues --   -0.18867  -0.15422  -0.13818  -0.13398  -0.11240
 Alpha virt. eigenvalues --   -0.09060  -0.07624  -0.06414  -0.02036  -0.00592
 Alpha virt. eigenvalues --    0.00057   0.03048   0.15675   0.17844   0.19311

  Beta  occ. eigenvalues --  -10.82199 -10.77765  -1.24556  -0.91472  -0.85708
  Beta  occ. eigenvalues --   -0.85707  -0.76666
  Beta virt. eigenvalues --   -0.41216  -0.17121  -0.15242  -0.13464  -0.13316
  Beta virt. eigenvalues --   -0.10970  -0.08926  -0.04773  -0.03666  -0.01741
  Beta virt. eigenvalues --    0.00516   0.00695   0.03923   0.15147   0.17575

 Mulliken charges and spin densities:
               1          2
     1  C   -0.142107   0.089142
     2  C   -0.142107   0.089142
     3  H    0.320939   0.204173
     4  H    0.321168   0.206685
     5  H    0.320939   0.204173
     6  H    0.321168   0.206685
 Sum of Mulliken charges =   1.00000   1.00000

 Dipole moment (field-independent basis, Debye):
    X=             -0.0000    Y=              0.0000    Z=              0.0000  Tot=              0.0000
 Quadrupole moment (field-independent basis, Debye-Ang):
   XX=             -7.5596   YY=             -2.6310   ZZ=            -11.8010
   XY=              0.0163   XZ=              0.0000   YZ=              0.0000

 Normal termination of Gaussian 16 at Tue Nov 19 11:51:55 2024.
