 Gaussian 16, Revision A.03,
 Gaussian 16:  ES64L-G16RevA.03 25-Dec-2016

 --------------------------------------------
 #p opt UM062X/6-311+G** nosymm int=superfine
 --------------------------------------------

 -------------------
 Title Card Required
 -------------------
 Symbolic Z-matrix:
 Charge =  1 Multiplicity = 2

 SCF Done:  E(UM062X) =  -1615.57531885     A.U. after   22 cycles
 SCF Done:  E(UM062X) =  -1615.58534281     A.U. after   20 cycles
 SCF Done:  E(UM062X) =  -1615.53577095     A.U. after   24 cycles
 SCF Done:  E(UM062X) =  -1615.57074619     A.U. after   24 cycles
 SCF Done:  E(UM062X) =  -1615.58623867     A.U. after   19 cycles
 SCF Done:  E(UM062X) =  -1615.58627568     A.U. after   23 cycles
 SCF Done:  E(UM062X) =  -1615.57943052     A.U. after   24 cycles
 SCF Done:  E(UM062X) =  -1615.58636752     A.U. after   23 cycles
 SCF Done:  E(UM062X) =  -1615.58739388     A.U. after   20 cycles
 SCF Done:  E(UM062X) =  -1615.58792824     A.U. after   19 cycles
 SCF Done:  E(UM062X) =  -1615.58799796     A.U. after   19 cycles
 SCF Done:  E(UM062X) =  -1615.58802322     A.U. after   18 cycles
 SCF Done:  E(UM062X) =  -1615.58802666     A.U. after   15 cycles
 SCF Done:  E(UM062X) =  -1615.58802812     A.U. after   14 cycles
 SCF Done:  E(UM062X) =  -1615.58802848     A.U. after   14 cycles
 SCF Done:  E(UM062X) =  -1615.58802858     A.U. after   13 cycles
 Optimization completed.
    -- Stationary point found.

                          Input orientation:
 ---------------------------------------------------------------------
 Center     Atomic      Atomic             Coordinates (Angstroms)
 Number     Number       Type             X           Y           Z
 ---------------------------------------------------------------------
      1          6           0       -1.383841    0.000000   -0.000000
      2          6           0        1.383841   -0.000000    0.000000
      3          6           0        0.000001   -2.119682    0.000137
      4          6           0       -0.000001   -3.505318    0.000246
      5          6           0       -1.133339   -4.313636    0.241816
      6          6           0       -1.256392   -1.479235    0.218448
      7          6           0        0.661870   -5.708767   -0.142419
      8          1           0        1.282321   -6.582806   -0.279859
      9          6           0       -1.540454    0.803667    1.190623
     10          6           0       -0.661859   -5.708743    0.143402
     11          1           0       -1.282300   -6.582757    0.281048
     12          6           0        1.133340   -4.313678   -0.241140
     13          6           0        1.256385   -1.479264   -0.218237
     14          6           0        1.712868    2.223645   -1.251604
     15          6           0       -1.557426    0.356042   -1.391251
     16          6           0       -1.881818    2.842703    2.504473
     17          1           0       -2.026694    3.916612    2.525464
     18          6           0       -2.324600   -3.682520    0.503168
     19          1           0       -3.236275   -4.233263    0.704549
     20          6           0       -1.592087    1.681871   -1.933176
     21          6           0        2.366512   -2.259009   -0.478096
     22          1           0        3.321493   -1.766678   -0.630798
     23          6           0        1.557528    0.356247    1.391191
     24          6           0        1.592004    1.682128    1.932976
     25          6           0        2.324618   -3.682600   -0.502530
     26          1           0        3.236313   -4.233377   -0.703731
     27          6           0       -1.713403    2.223696    1.251383
     28          6           0       -1.483534    0.122300    2.439788
     29          1           0       -1.310199   -0.942819    2.449569
     30          6           0        1.665440   -0.709744    2.337525
     31          1           0        1.677233   -1.731625    1.990944
     32          6           0       -1.867178    2.136911    3.688884
     33          1           0       -2.008919    2.648921    4.632883
     34          6           0       -2.366499   -2.258926    0.478495
     35          1           0       -3.321469   -1.766570    0.631186
     36          6           0       -1.675283    1.855746   -3.330256
     37          1           0       -1.680543    2.868881   -3.715202
     38          6           0        1.540444    0.803561   -1.190714
     39          6           0       -1.674040    3.136239    0.138693
     40          1           0       -1.717300    4.181548    0.428909
     41          6           0       -1.777404    0.798547   -4.204532
     42          1           0       -1.861609    0.974574   -5.270035
     43          6           0       -1.591516    2.910418   -1.186514
     44          1           0       -1.569429    3.800640   -1.807942
     45          6           0        1.675683    1.856175    3.330004
     46          1           0        1.680926    2.869356    3.714830
     47          6           0       -1.647819    0.758476    3.649756
     48          1           0       -1.599906    0.183126    4.566288
     49          6           0       -1.665036   -0.710065   -2.337485
     50          1           0       -1.676856   -1.731903   -1.990781
     51          6           0        1.778296    0.799093    4.204364
     52          1           0        1.862867    0.975257    5.269815
     53          6           0        1.881437    2.842560   -2.504714
     54          1           0        2.025880    3.916527   -2.525795
     55          6           0        1.790069   -0.501565    3.690593
     56          1           0        1.893131   -1.352378    4.352923
     57          6           0        1.867402    2.136613   -3.689043
     58          1           0        2.009262    2.648548   -4.633064
     59          6           0        1.672680    3.136327   -0.139041
     60          1           0        1.715070    4.181627   -0.429417
     61          6           0       -1.789275   -0.502051   -3.690614
     62          1           0       -1.892142   -1.352939   -4.352877
     63          6           0        1.590524    2.910611    1.186200
     64          1           0        1.567914    3.800881    1.807540
     65          6           0        1.483926    0.122049   -2.439810
     66          1           0        1.310766   -0.943101   -2.449528
     67          6           0        1.648363    0.758133   -3.649812
     68          1           0        1.600819    0.182663   -4.566289
 ---------------------------------------------------------------------

 Alpha  occ. eigenvalues --  -10.70998 -10.70997 -10.68581 -10.68581 -10.68562
 Alpha  occ. eigenvalues --  -10.68561 -10.68232 -10.68232 -10.68156 -10.68156
 Alpha  occ. eigenvalues --  -10.67081 -10.67079 -10.66608 -10.66608 -10.66504
 Alpha  occ. eigenvalues --  -10.66503 -10.66234 -10.65990 -10.65989 -10.65789
 Alpha  occ. eigenvalues --  -10.65789 -10.65766 -10.65766 -10.65728 -10.65728
 Alpha  occ. eigenvalues --  -10.65719 -10.65719 -10.65640 -10.65640 -10.65593
 Alpha  occ. eigenvalues --  -10.65593 -10.65519 -10.65519 -10.65478 -10.65478
 Alpha  occ. eigenvalues --  -10.65297 -10.65296 -10.64976 -10.64976 -10.63970
 Alpha  occ. eigenvalues --  -10.63871 -10.63398  -1.12321  -1.10202  -1.10197
 Alpha  occ. eigenvalues --   -1.08405  -1.07786  -1.05650  -1.04871  -1.02571
 Alpha  occ. eigenvalues --   -1.02106  -1.00903  -1.00447  -0.97953  -0.97631
 Alpha  occ. eigenvalues --   -0.96845  -0.96274  -0.95003  -0.93511  -0.93482
 Alpha  occ. eigenvalues --   -0.92830  -0.91856  -0.87392  -0.87384  -0.84987
 Alpha  occ. eigenvalues --   -0.84761  -0.83099  -0.81454  -0.81169  -0.79828
 Alpha  occ. eigenvalues --   -0.79720  -0.79531  -0.77512  -0.76395  -0.76191
 Alpha  occ. eigenvalues --   -0.75805  -0.75429  -0.73538  -0.70240  -0.69691
 Alpha  occ. eigenvalues --   -0.69039  -0.68538  -0.67750  -0.67641  -0.66945
 Alpha  occ. eigenvalues --   -0.66856  -0.65703  -0.65370  -0.65186  -0.64795
 Alpha  occ. eigenvalues --   -0.63288  -0.62908  -0.62375  -0.62157  -0.61112
 Alpha  occ. eigenvalues --   -0.61050  -0.60655  -0.60485  -0.60102  -0.60072
 Alpha  occ. eigenvalues --   -0.59581  -0.58918  -0.58805  -0.58139  -0.57807
 Alpha  occ. eigenvalues --   -0.57598  -0.56819  -0.55937  -0.55667  -0.55645
 Alpha  occ. eigenvalues --   -0.54976  -0.53989  -0.53104  -0.52843  -0.52656
 Alpha  occ. eigenvalues --   -0.52421  -0.52339  -0.52287  -0.51058  -0.50983
 Alpha  occ. eigenvalues --   -0.50982  -0.50903  -0.50163  -0.49512  -0.49379
 Alpha  occ. eigenvalues --   -0.48854  -0.48534  -0.47850  -0.44966  -0.44667
 Alpha  occ. eigenvalues --   -0.44118  -0.42820  -0.40480  -0.40428  -0.39288
 Alpha  occ. eigenvalues --   -0.38164  -0.37571  -0.37145  -0.31575
 Alpha virt. eigenvalues --   -0.20238  -0.15899  -0.15555  -0.14350  -0.10609
 Alpha virt. eigenvalues --   -0.09958  -0.08898  -0.08543  -0.08364  -0.07569
 Alpha virt. eigenvalues --   -0.07514  -0.07453  -0.06651  -0.06368  -0.06139

  Beta  occ. eigenvalues --  -10.70858 -10.70858 -10.68620 -10.68619 -10.68592
  Beta  occ. eigenvalues --  -10.68592 -10.68192 -10.68192 -10.68113 -10.68113
  Beta  occ. eigenvalues --  -10.67098 -10.67097 -10.66601 -10.66601 -10.66494
  Beta  occ. eigenvalues --  -10.66493 -10.66206 -10.65952 -10.65952 -10.65759
  Beta  occ. eigenvalues --  -10.65759 -10.65736 -10.65735 -10.65727 -10.65727
  Beta  occ. eigenvalues --  -10.65692 -10.65692 -10.65658 -10.65658 -10.65610
  Beta  occ. eigenvalues --  -10.65610 -10.65505 -10.65505 -10.65489 -10.65488
  Beta  occ. eigenvalues --  -10.65312 -10.65312 -10.64974 -10.64974 -10.63970
  Beta  occ. eigenvalues --  -10.63871 -10.63396  -1.12160  -1.10113  -1.10039
  Beta  occ. eigenvalues --   -1.08292  -1.07687  -1.05487  -1.04745  -1.02449
  Beta  occ. eigenvalues --   -1.02000  -1.00740  -1.00275  -0.97851  -0.97538
  Beta  occ. eigenvalues --   -0.96727  -0.96173  -0.94953  -0.93447  -0.93385
  Beta  occ. eigenvalues --   -0.92750  -0.91768  -0.87107  -0.87025  -0.84918
  Beta  occ. eigenvalues --   -0.84699  -0.83019  -0.81361  -0.81056  -0.79745
  Beta  occ. eigenvalues --   -0.79650  -0.79461  -0.77399  -0.76240  -0.76042
  Beta  occ. eigenvalues --   -0.75642  -0.75394  -0.73416  -0.70125  -0.69546
  Beta  occ. eigenvalues --   -0.68902  -0.68430  -0.67696  -0.67593  -0.66822
  Beta  occ. eigenvalues --   -0.66753  -0.65624  -0.65228  -0.65048  -0.64695
  Beta  occ. eigenvalues --   -0.63058  -0.62864  -0.62295  -0.62076  -0.60914
  Beta  occ. eigenvalues --   -0.60776  -0.60496  -0.60353  -0.60042  -0.60019
  Beta  occ. eigenvalues --   -0.59456  -0.58782  -0.58721  -0.58066  -0.57586
  Beta  occ. eigenvalues --   -0.57347  -0.56628  -0.55617  -0.55604  -0.55587
  Beta  occ. eigenvalues --   -0.54957  -0.53662  -0.52991  -0.52758  -0.52580
  Beta  occ. eigenvalues --   -0.52357  -0.52232  -0.52213  -0.50957  -0.50913
  Beta  occ. eigenvalues --   -0.50816  -0.50493  -0.49557  -0.49260  -0.48903
  Beta  occ. eigenvalues --   -0.48604  -0.48477  -0.47528  -0.44424  -0.44126
  Beta  occ. eigenvalues --   -0.43390  -0.42478  -0.40362  -0.40085  -0.38685
  Beta  occ. eigenvalues --   -0.37991  -0.37331  -0.37016
  Beta virt. eigenvalues --   -0.21730  -0.17757  -0.15667  -0.15504  -0.14392
  Beta virt. eigenvalues --   -0.10338  -0.09561  -0.08525  -0.08435  -0.08194
  Beta virt. eigenvalues --   -0.07577  -0.07572  -0.07208  -0.06632  -0.06307

 Mulliken charges and spin densities:
               1          2
     1  C    0.005758   0.342576
     2  C    0.006343   0.342649
     3  C    0.232411   0.006815
     4  C    0.176405  -0.000377
     5  C    0.165174   0.005697
     6  C   -0.017155  -0.030059
     7  C   -0.303525   0.001070
     8  H    0.176252  -0.000042
     9  C    0.198371  -0.050363
    10  C   -0.303436   0.001067
    11  H    0.176252  -0.000041
    12  C    0.165290   0.005687
    13  C   -0.017241  -0.030078
    14  C    0.428485   0.041260
    15  C    0.412323  -0.063185
    16  C   -0.367729  -0.032705
    17  H    0.165806   0.001074
    18  C   -0.517262  -0.000342
    19  H    0.175954   0.000280
    20  C    0.220705   0.105165
    21  C   -0.091871   0.018695
    22  H    0.174652  -0.000213
    23  C    0.412418  -0.063199
    24  C    0.220190   0.105213
    25  C   -0.517079  -0.000342
    26  H    0.175952   0.000280
    27  C    0.428904   0.041348
    28  C    0.003586   0.074787
    29  H    0.206526  -0.003621
    30  C   -0.271519   0.030185
    31  H    0.226480  -0.002279
    32  C   -0.389116   0.055894
    33  H    0.182075  -0.003095
    34  C   -0.092005   0.018681
    35  H    0.174637  -0.000213
    36  C   -0.033420  -0.055183
    37  H    0.162265   0.001489
    38  C    0.198494  -0.050299
    39  C   -0.287402   0.062075
    40  H    0.166422  -0.003547
    41  C   -0.252616   0.061457
    42  H    0.180624  -0.003072
    43  C   -0.314186   0.012920
    44  H    0.160539  -0.000818
    45  C   -0.033825  -0.055214
    46  H    0.162282   0.001490
    47  C   -0.112487  -0.035989
    48  H    0.168884  -0.000252
    49  C   -0.271268   0.030150
    50  H    0.226488  -0.002279
    51  C   -0.252832   0.061424
    52  H    0.180628  -0.003070
    53  C   -0.368193  -0.032702
    54  H    0.165806   0.001074
    55  C   -0.502776  -0.034205
    56  H    0.175638   0.001094
    57  C   -0.389469   0.055876
    58  H    0.182073  -0.003095
    59  C   -0.286234   0.062126
    60  H    0.166379  -0.003552
    61  C   -0.503521  -0.034222
    62  H    0.175643   0.001094
    63  C   -0.313512   0.012878
    64  H    0.160494  -0.000817
    65  C    0.003251   0.074789
    66  H    0.206518  -0.003621
    67  C   -0.112592  -0.036019
    68  H    0.168893  -0.000252
 Sum of Mulliken charges =   1.00000   1.00000

 Dipole moment (field-independent basis, Debye):
    X=             -0.0003    Y=              2.4237    Z=              0.0001  Tot=              2.4237
 Quadrupole moment (field-independent basis, Debye-Ang):
   XX=           -222.5485   YY=           -175.0705   ZZ=           -176.1936
   XY=             -0.0074   XZ=             -1.5109   YZ=             -0.0012

 Normal termination of Gaussian 16 at Fri Nov  8 22:57:31 2024.
