 Gaussian 16, Revision A.03,
 Gaussian 16:  ES64L-G16RevA.03 25-Dec-2016

 --------------------------------------------
 #p opt UM062X/6-311+G** nosymm int=superfine
 --------------------------------------------

 -------------------
 Title Card Required
 -------------------
 Symbolic Z-matrix:
 Charge =  0 Multiplicity = 1

 SCF Done:  E(UM062X) =  -94.2585114375     A.U. after   25 cycles
 SCF Done:  E(UM062X) =  -94.2585211586     A.U. after   36 cycles
 SCF Done:  E(UM062X) =  -94.2585675393     A.U. after   40 cycles
 SCF Done:  E(UM062X) =  -94.2585698068     A.U. after   10 cycles
 SCF Done:  E(UM062X) =  -94.2585702203     A.U. after   11 cycles
 SCF Done:  E(UM062X) =  -94.2585702609     A.U. after   11 cycles
 SCF Done:  E(UM062X) =  -94.2585703284     A.U. after   10 cycles
 SCF Done:  E(UM062X) =  -94.2585704493     A.U. after    9 cycles
 SCF Done:  E(UM062X) =  -94.2585706085     A.U. after   11 cycles
 SCF Done:  E(UM062X) =  -94.2585707102     A.U. after    9 cycles
 SCF Done:  E(UM062X) =  -94.2585707853     A.U. after   12 cycles
 SCF Done:  E(UM062X) =  -94.2585708420     A.U. after   10 cycles
 Optimization completed.
    -- Stationary point found.

                          Input orientation:
 ---------------------------------------------------------------------
 Center     Atomic      Atomic             Coordinates (Angstroms)
 Number     Number       Type             X           Y           Z
 ---------------------------------------------------------------------
      1          6           0       -2.026262   -0.000000    0.000000
      2          7           0        2.026262    0.000000   -0.000000
      3          1           0       -2.715071   -0.866654    0.015536
      4          1           0        0.985232    0.000838    0.003559
      5          1           0       -2.721060    0.861763   -0.019421
 ---------------------------------------------------------------------

 Alpha  occ. eigenvalues --  -14.81676 -10.62535  -0.88034  -0.77254  -0.49318
 Alpha  occ. eigenvalues --   -0.44939  -0.33330  -0.32531
 Alpha virt. eigenvalues --   -0.11447  -0.09827   0.01234   0.05335   0.06135
 Alpha virt. eigenvalues --    0.07411   0.13494   0.13675   0.15392   0.17073
 Alpha virt. eigenvalues --    0.17988   0.18041   0.21154   0.43169   0.47641

  Beta  occ. eigenvalues --  -14.81676 -10.62535  -0.88034  -0.77254  -0.49318
  Beta  occ. eigenvalues --   -0.44939  -0.33330  -0.32531
  Beta virt. eigenvalues --   -0.11447  -0.09827   0.01234   0.05335   0.06135
  Beta virt. eigenvalues --    0.07411   0.13494   0.13675   0.15392   0.17073
  Beta virt. eigenvalues --    0.17988   0.18041   0.21154   0.43169   0.47641

 Mulliken charges and spin densities:
               1          2
     1  C   -0.294091  -0.000000
     2  N   -0.240167  -0.000000
     3  H    0.141727   0.000000
     4  H    0.250700   0.000000
     5  H    0.141832   0.000000
 Sum of Mulliken charges =  -0.00000   0.00000

 Dipole moment (field-independent basis, Debye):
    X=             -4.1048    Y=             -0.0056    Z=              0.0000  Tot=              4.1048
 Quadrupole moment (field-independent basis, Debye-Ang):
   XX=            -13.4246   YY=            -12.2572   ZZ=            -14.8807
   XY=              0.0110   XZ=              0.0081   YZ=             -0.0409

 Normal termination of Gaussian 16 at Mon Apr 21 22:38:03 2025.
