 Gaussian 16, Revision A.03,
 Gaussian 16:  ES64L-G16RevA.03 25-Dec-2016

 --------------------------------------------
 #p opt UM062X/6-311+G** nosymm int=superfine
 --------------------------------------------

 -------------------
 Title Card Required
 -------------------
 Symbolic Z-matrix:
 Charge =  1 Multiplicity = 2

 SCF Done:  E(UM062X) =  -78.0863173759     A.U. after    9 cycles
 SCF Done:  E(UM062X) =  -78.1096312455     A.U. after    9 cycles
 SCF Done:  E(UM062X) =  -78.1182835266     A.U. after    9 cycles
 SCF Done:  E(UM062X) =  -78.1188701681     A.U. after    8 cycles
 SCF Done:  E(UM062X) =  -78.1188775544     A.U. after    6 cycles
 Optimization completed.
    -- Stationary point found.

                          Input orientation:
 ---------------------------------------------------------------------
 Center     Atomic      Atomic             Coordinates (Angstroms)
 Number     Number       Type             X           Y           Z
 ---------------------------------------------------------------------
      1          6           0       -0.897753    0.000000    0.000000
      2          6           0        0.897753    0.000000    0.000000
      3          1           0       -1.390935   -0.966170    0.000000
      4          1           0       -1.390961    0.966120    0.000000
      5          1           0        1.390935    0.966170   -0.000000
      6          1           0        1.390961   -0.966120   -0.000000
 ---------------------------------------------------------------------

 Alpha  occ. eigenvalues --  -10.91646 -10.91622  -1.09741  -0.99355  -0.81659
 Alpha  occ. eigenvalues --   -0.76300  -0.71698  -0.59290
 Alpha virt. eigenvalues --   -0.34569  -0.17552  -0.14374  -0.11290  -0.08770
 Alpha virt. eigenvalues --   -0.08720  -0.07380  -0.07316  -0.04704  -0.04441
 Alpha virt. eigenvalues --   -0.01849  -0.01335   0.02572   0.09679   0.18476

  Beta  occ. eigenvalues --  -10.91417 -10.91401  -1.06415  -0.97231  -0.80961
  Beta  occ. eigenvalues --   -0.75949  -0.70417
  Beta virt. eigenvalues --   -0.37368  -0.26368  -0.15911  -0.15627  -0.11660
  Beta virt. eigenvalues --   -0.08605  -0.07995  -0.07992  -0.07311  -0.04473
  Beta virt. eigenvalues --   -0.04017  -0.01443  -0.00719   0.01933   0.10257

 Mulliken charges and spin densities:
               1          2
     1  C   -0.063803   0.540150
     2  C   -0.063802   0.540149
     3  H    0.281902  -0.020075
     4  H    0.281900  -0.020074
     5  H    0.281902  -0.020075
     6  H    0.281900  -0.020074
 Sum of Mulliken charges =   1.00000   1.00000

 Dipole moment (field-independent basis, Debye):
    X=              0.0000    Y=              0.0000    Z=              0.0000  Tot=              0.0000
 Quadrupole moment (field-independent basis, Debye-Ang):
   XX=             -3.5414   YY=             -8.2822   ZZ=            -12.2009
   XY=              0.0000   XZ=             -0.0000   YZ=             -0.0000

 Normal termination of Gaussian 16 at Tue Nov 19 11:12:26 2024.
