 Gaussian 16, Revision A.03,
 Gaussian 16:  ES64L-G16RevA.03 25-Dec-2016

 ---------------------------------------
 #p UM062X/6-311+G** force int=superfine
 ---------------------------------------

 -------------------
 Title Card Required
 -------------------
 Symbolic Z-matrix:
 Charge =  0 Multiplicity = 1

                         Standard orientation:
 ---------------------------------------------------------------------
 Center     Atomic      Atomic             Coordinates (Angstroms)
 Number     Number       Type             X           Y           Z
 ---------------------------------------------------------------------
      1          6           0        0.000000    1.034080    0.000000
      2          6           0       -0.000000   -1.034080    0.000000
      3          1           0       -0.975605    1.491986    0.000000
      4          1           0        0.975700    1.492001    0.000000
      5          1           0        0.975605   -1.491986    0.000000
      6          1           0       -0.975700   -1.492001    0.000000
 ---------------------------------------------------------------------

 SCF Done:  E(UM062X) =  -78.3580140920     A.U. after    8 cycles

 The electronic state is 1-AG.
 Alpha  occ. eigenvalues --  -10.61336 -10.61323  -0.77244  -0.71762  -0.53035
 Alpha  occ. eigenvalues --   -0.50199  -0.37164  -0.25809
 Alpha virt. eigenvalues --   -0.07064   0.01130   0.03362   0.05384   0.07286
 Alpha virt. eigenvalues --    0.08409   0.09160   0.09913   0.11357   0.15247
 Alpha virt. eigenvalues --    0.16426   0.20423   0.21320   0.28011   0.39546

  Beta  occ. eigenvalues --  -10.61336 -10.61323  -0.77244  -0.71762  -0.53035
  Beta  occ. eigenvalues --   -0.50199  -0.37164  -0.25809
  Beta virt. eigenvalues --   -0.07064   0.01130   0.03362   0.05384   0.07286
  Beta virt. eigenvalues --    0.08409   0.09160   0.09913   0.11357   0.15247
  Beta virt. eigenvalues --    0.16426   0.20423   0.21320   0.28011   0.39546

 Mulliken charges and spin densities:
               1          2
     1  C   -0.363548   0.000000
     2  C   -0.363548   0.000000
     3  H    0.181773  -0.000000
     4  H    0.181775  -0.000000
     5  H    0.181773  -0.000000
     6  H    0.181775  -0.000000
 Sum of Mulliken charges =   0.00000  -0.00000

 Dipole moment (field-independent basis, Debye):
    X=              0.0000    Y=              0.0000    Z=              0.0000  Tot=              0.0000
 Quadrupole moment (field-independent basis, Debye-Ang):
   XX=            -12.0674   YY=            -11.1339   ZZ=            -18.2795
   XY=              0.0001   XZ=              0.0000   YZ=              0.0000

 Normal termination of Gaussian 16 at Tue Nov 19 11:50:09 2024.
