 Gaussian 16, Revision A.03,
 Gaussian 16:  ES64L-G16RevA.03 25-Dec-2016

 ---------------------------------------
 #p UM062X/6-311+G** force int=superfine
 ---------------------------------------

 -------------------
 Title Card Required
 -------------------
 Symbolic Z-matrix:
 Charge =  0 Multiplicity = 1

                         Standard orientation:
 ---------------------------------------------------------------------
 Center     Atomic      Atomic             Coordinates (Angstroms)
 Number     Number       Type             X           Y           Z
 ---------------------------------------------------------------------
      1          7           0        0.000000    0.000000    1.395048
      2          7           0        0.000000    0.000000   -1.395048
 ---------------------------------------------------------------------

 SCF Done:  E(UM062X) =  -108.805942952     A.U. after   10 cycles

 The electronic state is 1-SGG.
 Alpha  occ. eigenvalues --  -14.97309 -14.97303  -0.88364  -0.86051  -0.36568
 Alpha  occ. eigenvalues --   -0.34040  -0.34040
 Alpha virt. eigenvalues --   -0.22864  -0.22864  -0.19860   0.07287   0.09323
 Alpha virt. eigenvalues --    0.11377   0.11377   0.15177   0.15177   0.16168
 Alpha virt. eigenvalues --    0.22982   0.70173   0.75562   0.75562   0.80532

  Beta  occ. eigenvalues --  -14.97309 -14.97303  -0.88364  -0.86051  -0.36568
  Beta  occ. eigenvalues --   -0.34040  -0.34040
  Beta virt. eigenvalues --   -0.22864  -0.22864  -0.19860   0.07287   0.09323
  Beta virt. eigenvalues --    0.11377   0.11377   0.15177   0.15177   0.16168
  Beta virt. eigenvalues --    0.22982   0.70173   0.75562   0.75562   0.80532

 Mulliken charges and spin densities:
               1          2
     1  N    0.000000  -0.000000
     2  N    0.000000  -0.000000
 Sum of Mulliken charges =   0.00000  -0.00000

 Dipole moment (field-independent basis, Debye):
    X=              0.0000    Y=             -0.0000    Z=              0.0000  Tot=              0.0000
 Quadrupole moment (field-independent basis, Debye-Ang):
   XX=            -12.4293   YY=            -12.4293   ZZ=            -10.5739
   XY=              0.0000   XZ=             -0.0000   YZ=              0.0000

 Optimization completed.
    -- Stationary point found.
 Normal termination of Gaussian 16 at Wed Feb 26 13:55:48 2025.
