 Gaussian 16, Revision A.03,
 Gaussian 16:  ES64L-G16RevA.03 25-Dec-2016

 ---------------------------------------------------------
 #p opt UM062X/6-311+G** nosymm int=superfine SCF=NoVarAcc
 ---------------------------------------------------------

 -------------------
 Title Card Required
 -------------------
 Symbolic Z-matrix:
 Charge =  1 Multiplicity = 2

 SCF Done:  E(UM062X) =  -76.5838238151     A.U. after   17 cycles
 SCF Done:  E(UM062X) =  -76.5841752769     A.U. after   10 cycles
 Optimization completed.
    -- Stationary point found.

                          Input orientation:
 ---------------------------------------------------------------------
 Center     Atomic      Atomic             Coordinates (Angstroms)
 Number     Number       Type             X           Y           Z
 ---------------------------------------------------------------------
      1          6           0       -5.382160    0.000000    0.000000
      2          6           0        5.382160    0.000000    0.000000
      3          1           0       -6.500113   -0.000000   -0.000000
      4          1           0        6.500112   -0.000000   -0.000000
 ---------------------------------------------------------------------

 Alpha  occ. eigenvalues --  -10.91411 -10.91411  -0.95200  -0.95196  -0.60241
 Alpha  occ. eigenvalues --   -0.60239  -0.42668
 Alpha virt. eigenvalues --   -0.40036  -0.30148  -0.30148  -0.09112  -0.09111
 Alpha virt. eigenvalues --   -0.03854  -0.03843  -0.03824  -0.03686  -0.03674
 Alpha virt. eigenvalues --   -0.03640   0.02269   0.02303   0.30465   0.30577

  Beta  occ. eigenvalues --  -10.90996 -10.90996  -0.92836  -0.92836  -0.58849
  Beta  occ. eigenvalues --   -0.58849
  Beta virt. eigenvalues --   -0.28264  -0.28264  -0.26631  -0.26631  -0.09320
  Beta virt. eigenvalues --   -0.09319  -0.03829  -0.03647  -0.03059  -0.03048
  Beta virt. eigenvalues --   -0.02134  -0.02123   0.04074   0.04111   0.29794

 Mulliken charges and spin densities:
               1          2
     1  C    0.297860   0.515503
     2  C    0.297860   0.515503
     3  H    0.202140  -0.015503
     4  H    0.202140  -0.015503
 Sum of Mulliken charges =   1.00000   1.00000

 Dipole moment (field-independent basis, Debye):
    X=             -0.0000    Y=              0.0000    Z=             -0.0000  Tot=              0.0000
 Quadrupole moment (field-independent basis, Debye-Ang):
   XX=            170.3524   YY=            -10.2576   ZZ=            -10.6572
   XY=              0.0000   XZ=             -0.0000   YZ=              0.9703

 Normal termination of Gaussian 16 at Tue Dec  3 17:44:07 2024.
