 Gaussian 16, Revision A.03,
 Gaussian 16:  ES64L-G16RevA.03 25-Dec-2016

 --------------------------------------------
 #p opt UM062X/6-311+G** nosymm int=superfine
 --------------------------------------------

 -------------------
 Title Card Required
 -------------------
 Symbolic Z-matrix:
 Charge =  0 Multiplicity = 1

 SCF Done:  E(UM062X) =  -114.087361686     A.U. after   17 cycles
 SCF Done:  E(UM062X) =  -114.089763484     A.U. after   10 cycles
 SCF Done:  E(UM062X) =  -114.090524058     A.U. after    9 cycles
 SCF Done:  E(UM062X) =  -114.090528271     A.U. after    8 cycles
 Optimization completed.
    -- Stationary point found.

                          Input orientation:
 ---------------------------------------------------------------------
 Center     Atomic      Atomic             Coordinates (Angstroms)
 Number     Number       Type             X           Y           Z
 ---------------------------------------------------------------------
      1          6           0       -1.773311    0.000000    0.000000
      2          8           0        1.773311    0.000000    0.000000
      3          1           0       -2.454315   -0.871114    0.000002
      4          1           0       -2.454320    0.871110    0.000002
 ---------------------------------------------------------------------

 Alpha  occ. eigenvalues --  -19.74102 -10.62986  -1.03901  -0.77346  -0.49691
 Alpha  occ. eigenvalues --   -0.42795  -0.42789  -0.33023
 Alpha virt. eigenvalues --   -0.16990  -0.09770   0.01655   0.05970   0.07855
 Alpha virt. eigenvalues --    0.08280   0.15786   0.16795   0.18385   0.19742
 Alpha virt. eigenvalues --    0.21939   0.25897   0.43529   0.47061   0.57505

  Beta  occ. eigenvalues --  -19.74102 -10.62986  -1.03901  -0.77346  -0.49691
  Beta  occ. eigenvalues --   -0.42795  -0.42789  -0.33023
  Beta virt. eigenvalues --   -0.16990  -0.09770   0.01655   0.05970   0.07855
  Beta virt. eigenvalues --    0.08280   0.15786   0.16795   0.18385   0.19742
  Beta virt. eigenvalues --    0.21939   0.25897   0.43529   0.47061   0.57505

 Mulliken charges and spin densities:
               1          2
     1  C   -0.263815  -0.000000
     2  O   -0.025828   0.000000
     3  H    0.144821  -0.000000
     4  H    0.144821   0.000000
 Sum of Mulliken charges =  -0.00000  -0.00000

 Dipole moment (field-independent basis, Debye):
    X=             -2.8496    Y=             -0.0000    Z=              0.0000  Tot=              2.8496
 Quadrupole moment (field-independent basis, Debye-Ang):
   XX=             -5.3807   YY=            -13.0899   ZZ=            -12.4962
   XY=              0.0000   XZ=             -0.0000   YZ=             -0.0000

 Normal termination of Gaussian 16 at Mon Apr 21 18:51:19 2025.
