 Gaussian 16, Revision A.03,
 Gaussian 16:  ES64L-G16RevA.03 25-Dec-2016

 --------------------------------------------
 #p opt UM062X/6-311+G** nosymm int=superfine
 --------------------------------------------

 -------------------
 Title Card Required
 -------------------
 Symbolic Z-matrix:
 Charge =  0 Multiplicity = 3

 SCF Done:  E(UM062X) =  -50.4680073705     A.U. after   10 cycles
 SCF Done:  E(UM062X) =  -50.4689482879     A.U. after   10 cycles
 SCF Done:  E(UM062X) =  -50.4689561129     A.U. after   10 cycles
 Optimization completed.
    -- Stationary point found.

                          Input orientation:
 ---------------------------------------------------------------------
 Center     Atomic      Atomic             Coordinates (Angstroms)
 Number     Number       Type             X           Y           Z
 ---------------------------------------------------------------------
      1          5           0       -2.153410    0.000000    0.000000
      2          5           0        2.153410    0.000000    0.000000
      3          1           0       -3.359405   -0.000082   -0.000000
      4          1           0        3.359405    0.000082    0.000000
 ---------------------------------------------------------------------

 Alpha  occ. eigenvalues --   -7.14504  -7.14503  -0.56949  -0.56838  -0.33142
 Alpha  occ. eigenvalues --   -0.31572  -0.17498
 Alpha virt. eigenvalues --   -0.10686  -0.06365  -0.05726   0.02731   0.02917
 Alpha virt. eigenvalues --    0.05513   0.06802   0.07070   0.07632   0.08059
 Alpha virt. eigenvalues --    0.11225   0.16049   0.21677   0.33157   0.38994

  Beta  occ. eigenvalues --   -7.13608  -7.13608  -0.53656  -0.53555  -0.23045
  Beta virt. eigenvalues --   -0.12697  -0.04447  -0.03925  -0.03464  -0.02894
  Beta virt. eigenvalues --    0.01944   0.02391   0.07042   0.07360   0.08006
  Beta virt. eigenvalues --    0.08153   0.08805   0.09631   0.15826   0.23036

 Mulliken charges and spin densities:
               1          2
     1  B   -0.057574   0.930931
     2  B   -0.057574   0.930931
     3  H    0.057574   0.069069
     4  H    0.057574   0.069069
 Sum of Mulliken charges =  -0.00000   2.00000

 Dipole moment (field-independent basis, Debye):
    X=              0.0000    Y=              0.0000    Z=             -0.0000  Tot=              0.0000
 Quadrupole moment (field-independent basis, Debye-Ang):
   XX=             -6.7878   YY=            -13.6817   ZZ=            -17.6553
   XY=              0.0000   XZ=              0.0000   YZ=              0.0001

 1\1\GINC-NODE06\FOpt\UM062X\6-311+G(d,p)\B2H2(3)\SZHAO\21-Apr-2025\0\\
 #p opt UM062X/6-311+G** nosymm int=superfine\\Title Card Required\\0,3
 \B,-2.15341047,0.,0.\B,2.15341047,0.,0.\H,-3.3594054258,-0.0000822918,
 -0.0000000018\H,3.3594054196,0.0000822923,0.0000000018\\Version=ES64L-
 G16RevA.03\HF=-50.4689561\S2=2.024929\S2-1=0.\S2A=2.00002\RMSD=2.200e-
 09\RMSF=4.604e-07\Dipole=0.,0.,0.\Quadrupole=4.4016831,-0.7237082,-3.6
 779749,0.0000284,0.,0.0000651\PG=C*V [C*(H1B1B1H1)]\\@

 Normal termination of Gaussian 16 at Mon Apr 21 17:30:00 2025.
