 Gaussian 16, Revision A.03,
 Gaussian 16:  ES64L-G16RevA.03 25-Dec-2016

 ---------------------------------------------------------------------
 #p opt UM062X/6-311+G** nosymm int=superfine SCF=(Tight,MaxCycle=200)
 ---------------------------------------------------------------------

 -------------------
 Title Card Required
 -------------------
 Symbolic Z-matrix:
 Charge =  1 Multiplicity = 2

 SCF Done:  E(UM062X) =  -1615.57399134     A.U. after   22 cycles
 SCF Done:  E(UM062X) =  -1615.57240301     A.U. after   20 cycles
 SCF Done:  E(UM062X) =  -1615.57301558     A.U. after   20 cycles
 SCF Done:  E(UM062X) =  -1615.57544027     A.U. after   13 cycles
 SCF Done:  E(UM062X) =  -1615.54329194     A.U. after   23 cycles
 SCF Done:  E(UM062X) =  -1615.57433755     A.U. after   20 cycles
 SCF Done:  E(UM062X) =  -1615.57585258     A.U. after   15 cycles
 SCF Done:  E(UM062X) =  -1615.57502726     A.U. after   20 cycles
 SCF Done:  E(UM062X) =  -1615.57586748     A.U. after   17 cycles
 SCF Done:  E(UM062X) =  -1615.57587532     A.U. after   17 cycles
 SCF Done:  E(UM062X) =  -1615.57590201     A.U. after   16 cycles
 SCF Done:  E(UM062X) =  -1615.57590278     A.U. after   14 cycles
 SCF Done:  E(UM062X) =  -1615.57590365     A.U. after   13 cycles
 SCF Done:  E(UM062X) =  -1615.57590376     A.U. after   13 cycles
 SCF Done:  E(UM062X) =  -1615.57590391     A.U. after   12 cycles
 Optimization completed.
    -- Stationary point found.

                          Input orientation:
 ---------------------------------------------------------------------
 Center     Atomic      Atomic             Coordinates (Angstroms)
 Number     Number       Type             X           Y           Z
 ---------------------------------------------------------------------
      1          6           0       -1.198443    0.000000    0.000000
      2          6           0        1.198443    0.000000    0.000000
      3          6           0       -0.000001   -2.159129    0.000111
      4          6           0       -0.000000   -3.533646    0.000210
      5          6           0       -1.130048   -4.324946    0.283541
      6          6           0       -1.207911   -1.481017    0.265549
      7          6           0        0.657744   -5.721305   -0.166254
      8          1           0        1.267843   -6.599169   -0.324222
      9          6           0       -1.465986    0.843347    1.157350
     10          6           0       -0.657851   -5.721283    0.166524
     11          1           0       -1.267991   -6.599127    0.324450
     12          6           0        1.130014   -4.324985   -0.283175
     13          6           0        1.207930   -1.481050   -0.265382
     14          6           0        1.666935    2.257937   -1.160218
     15          6           0       -1.466631    0.300482   -1.409008
     16          6           0       -1.884332    2.919392    2.386586
     17          1           0       -2.043900    3.991128    2.364243
     18          6           0       -2.300126   -3.662596    0.584204
     19          1           0       -3.215225   -4.195025    0.817460
     20          6           0       -1.553525    1.601310   -1.995201
     21          6           0        2.327692   -2.233288   -0.563472
     22          1           0        3.271186   -1.731253   -0.750800
     23          6           0        1.466657    0.300603    1.408963
     24          6           0        1.553746    1.601482    1.995013
     25          6           0        2.300091   -3.662675   -0.583903
     26          1           0        3.215155   -4.195129   -0.817237
     27          6           0       -1.666764    2.258112    1.159934
     28          6           0       -1.461472    0.203376    2.426526
     29          1           0       -1.277739   -0.858621    2.478632
     30          6           0        1.603399   -0.796544    2.307777
     31          1           0        1.580935   -1.807391    1.931999
     32          6           0       -1.900939    2.256150    3.593024
     33          1           0       -2.075942    2.798666    4.514094
     34          6           0       -2.327686   -2.233217    0.563733
     35          1           0       -3.271166   -1.731146    0.751028
     36          6           0       -1.705800    1.725571   -3.392760
     37          1           0       -1.749838    2.724665   -3.810389
     38          6           0        1.466031    0.843188   -1.157466
     39          6           0       -1.620816    3.132950    0.018137
     40          1           0       -1.668815    4.187484    0.271775
     41          6           0       -1.828710    0.636997   -4.224346
     42          1           0       -1.964297    0.772345   -5.290406
     43          6           0       -1.542457    2.859111   -1.297860
     44          1           0       -1.531099    3.724911   -1.952982
     45          6           0        1.706019    1.725868    3.392560
     46          1           0        1.750201    2.724998    3.810084
     47          6           0       -1.675951    0.876867    3.607708
     48          1           0       -1.659685    0.332203    4.543872
     49          6           0       -1.603371   -0.796742   -2.307724
     50          1           0       -1.581001   -1.807554   -1.931841
     51          6           0        1.828841    0.637365    4.224254
     52          1           0        1.964471    0.772815    5.290295
     53          6           0        1.884399    2.919082   -2.386959
     54          1           0        2.044082    3.990805   -2.364740
     55          6           0        1.793069   -0.640760    3.662848
     56          1           0        1.911254   -1.518467    4.286396
     57          6           0        1.900793    2.255730   -3.593337
     58          1           0        2.075680    2.798157   -4.514483
     59          6           0        1.621285    3.132886   -0.018499
     60          1           0        1.669537    4.187386   -0.272235
     61          6           0       -1.793009   -0.641075   -3.662813
     62          1           0       -1.911236   -1.518836   -4.286279
     63          6           0        1.542965    2.859200    1.297529
     64          1           0        1.531924    3.725075    1.952557
     65          6           0        1.461332    0.203099   -2.426587
     66          1           0        1.277509   -0.858887   -2.478583
     67          6           0        1.675717    0.876459   -3.607860
     68          1           0        1.659265    0.331707   -4.543970
 ---------------------------------------------------------------------

 Alpha  occ. eigenvalues --  -10.71594 -10.71592 -10.68627 -10.68627 -10.68561
 Alpha  occ. eigenvalues --  -10.68560 -10.68303 -10.68303 -10.68021 -10.68020
 Alpha  occ. eigenvalues --  -10.66891 -10.66890 -10.66609 -10.66609 -10.66495
 Alpha  occ. eigenvalues --  -10.66495 -10.66043 -10.66043 -10.65928 -10.65928
 Alpha  occ. eigenvalues --  -10.65737 -10.65737 -10.65730 -10.65730 -10.65701
 Alpha  occ. eigenvalues --  -10.65701 -10.65651 -10.65651 -10.65610 -10.65610
 Alpha  occ. eigenvalues --  -10.65602 -10.65602 -10.65542 -10.65542 -10.65355
 Alpha  occ. eigenvalues --  -10.65265 -10.65264 -10.65049 -10.65049 -10.64109
 Alpha  occ. eigenvalues --  -10.64012 -10.63103  -1.12772  -1.10354  -1.10019
 Alpha  occ. eigenvalues --   -1.08486  -1.07798  -1.05995  -1.04670  -1.02623
 Alpha  occ. eigenvalues --   -1.02140  -1.00647  -1.00646  -0.97927  -0.97650
 Alpha  occ. eigenvalues --   -0.96940  -0.96243  -0.95048  -0.93463  -0.93456
 Alpha  occ. eigenvalues --   -0.92790  -0.91948  -0.87643  -0.87323  -0.84965
 Alpha  occ. eigenvalues --   -0.84712  -0.83040  -0.81503  -0.81337  -0.79875
 Alpha  occ. eigenvalues --   -0.79757  -0.79522  -0.77644  -0.76427  -0.76198
 Alpha  occ. eigenvalues --   -0.75662  -0.75453  -0.73755  -0.70223  -0.69800
 Alpha  occ. eigenvalues --   -0.69150  -0.68461  -0.67740  -0.67591  -0.66985
 Alpha  occ. eigenvalues --   -0.66811  -0.65630  -0.65346  -0.65082  -0.64879
 Alpha  occ. eigenvalues --   -0.63426  -0.63036  -0.62308  -0.62220  -0.61337
 Alpha  occ. eigenvalues --   -0.61168  -0.60738  -0.60417  -0.60126  -0.60049
 Alpha  occ. eigenvalues --   -0.59602  -0.58926  -0.58739  -0.58145  -0.57841
 Alpha  occ. eigenvalues --   -0.57596  -0.56570  -0.55773  -0.55701  -0.55645
 Alpha  occ. eigenvalues --   -0.54997  -0.54192  -0.53312  -0.52842  -0.52703
 Alpha  occ. eigenvalues --   -0.52546  -0.52295  -0.52196  -0.51355  -0.51020
 Alpha  occ. eigenvalues --   -0.50941  -0.50935  -0.50512  -0.49441  -0.49088
 Alpha  occ. eigenvalues --   -0.48942  -0.48558  -0.47948  -0.44524  -0.44119
 Alpha  occ. eigenvalues --   -0.43987  -0.42999  -0.40593  -0.40369  -0.39299
 Alpha  occ. eigenvalues --   -0.38090  -0.37714  -0.37245  -0.33248
 Alpha virt. eigenvalues --   -0.18590  -0.15589  -0.15531  -0.14574  -0.10430
 Alpha virt. eigenvalues --   -0.09916  -0.08799  -0.08586  -0.08334  -0.07594
 Alpha virt. eigenvalues --   -0.07589  -0.07483  -0.06630  -0.06383  -0.06248

  Beta  occ. eigenvalues --  -10.71474 -10.71474 -10.68634 -10.68634 -10.68581
  Beta  occ. eigenvalues --  -10.68580 -10.68262 -10.68261 -10.67984 -10.67984
  Beta  occ. eigenvalues --  -10.66903 -10.66902 -10.66596 -10.66596 -10.66477
  Beta  occ. eigenvalues --  -10.66477 -10.66012 -10.66012 -10.65929 -10.65929
  Beta  occ. eigenvalues --  -10.65750 -10.65750 -10.65718 -10.65718 -10.65687
  Beta  occ. eigenvalues --  -10.65686 -10.65637 -10.65637 -10.65607 -10.65607
  Beta  occ. eigenvalues --  -10.65587 -10.65587 -10.65547 -10.65547 -10.65335
  Beta  occ. eigenvalues --  -10.65272 -10.65272 -10.65045 -10.65045 -10.64109
  Beta  occ. eigenvalues --  -10.64011 -10.63103  -1.12609  -1.10253  -1.09858
  Beta  occ. eigenvalues --   -1.08358  -1.07683  -1.05841  -1.04559  -1.02479
  Beta  occ. eigenvalues --   -1.02011  -1.00493  -1.00484  -0.97822  -0.97554
  Beta  occ. eigenvalues --   -0.96807  -0.96131  -0.94996  -0.93394  -0.93360
  Beta  occ. eigenvalues --   -0.92676  -0.91845  -0.87305  -0.87046  -0.84883
  Beta  occ. eigenvalues --   -0.84640  -0.82964  -0.81376  -0.81254  -0.79782
  Beta  occ. eigenvalues --   -0.79684  -0.79451  -0.77517  -0.76254  -0.76039
  Beta  occ. eigenvalues --   -0.75493  -0.75416  -0.73626  -0.70110  -0.69649
  Beta  occ. eigenvalues --   -0.69020  -0.68361  -0.67660  -0.67527  -0.66859
  Beta  occ. eigenvalues --   -0.66712  -0.65547  -0.65210  -0.64949  -0.64760
  Beta  occ. eigenvalues --   -0.63137  -0.62995  -0.62216  -0.62133  -0.61030
  Beta  occ. eigenvalues --   -0.61004  -0.60586  -0.60283  -0.60072  -0.59989
  Beta  occ. eigenvalues --   -0.59475  -0.58768  -0.58658  -0.58052  -0.57561
  Beta  occ. eigenvalues --   -0.57372  -0.56424  -0.55631  -0.55573  -0.55346
  Beta  occ. eigenvalues --   -0.54981  -0.53803  -0.53134  -0.52748  -0.52607
  Beta  occ. eigenvalues --   -0.52498  -0.52194  -0.52083  -0.50991  -0.50948
  Beta  occ. eigenvalues --   -0.50828  -0.50451  -0.49821  -0.49114  -0.49016
  Beta  occ. eigenvalues --   -0.48797  -0.48493  -0.47551  -0.43929  -0.43741
  Beta  occ. eigenvalues --   -0.43251  -0.42653  -0.40307  -0.40136  -0.38670
  Beta  occ. eigenvalues --   -0.37825  -0.37405  -0.37016
  Beta virt. eigenvalues --   -0.23428  -0.16905  -0.15524  -0.15205  -0.14566
  Beta virt. eigenvalues --   -0.10246  -0.09520  -0.08431  -0.08404  -0.08303
  Beta virt. eigenvalues --   -0.07578  -0.07551  -0.07288  -0.06609  -0.06353

 Mulliken charges and spin densities:
               1          2
     1  C   -0.008586   0.211827
     2  C   -0.008781   0.211816
     3  C    0.182730   0.005472
     4  C    0.111584  -0.000647
     5  C    0.109845   0.005984
     6  C    0.070815  -0.018705
     7  C   -0.303757   0.001569
     8  H    0.176417  -0.000074
     9  C    0.244553   0.001793
    10  C   -0.303830   0.001568
    11  H    0.176417  -0.000074
    12  C    0.109796   0.005982
    13  C    0.070856  -0.018705
    14  C    0.220373   0.061798
    15  C    0.298385  -0.012823
    16  C   -0.221322  -0.029457
    17  H    0.163870   0.000869
    18  C   -0.457281  -0.001516
    19  H    0.175626   0.000477
    20  C    0.201133   0.091111
    21  C   -0.146458   0.017467
    22  H    0.174727  -0.000518
    23  C    0.298353  -0.012810
    24  C    0.201362   0.091109
    25  C   -0.457188  -0.001514
    26  H    0.175626   0.000477
    27  C    0.220505   0.061786
    28  C   -0.110623   0.032084
    29  H    0.201945  -0.002104
    30  C   -0.277027   0.027850
    31  H    0.224643  -0.000968
    32  C   -0.344475   0.052820
    33  H    0.181266  -0.002770
    34  C   -0.146450   0.017463
    35  H    0.174731  -0.000518
    36  C   -0.098469  -0.039989
    37  H    0.163889   0.001199
    38  C    0.244453   0.001785
    39  C   -0.253774   0.065706
    40  H    0.167854  -0.004541
    41  C   -0.241912   0.043844
    42  H    0.179810  -0.002065
    43  C   -0.226495   0.027903
    44  H    0.159660  -0.001763
    45  C   -0.098413  -0.039994
    46  H    0.163891   0.001199
    47  C   -0.143910  -0.006761
    48  H    0.170048  -0.001294
    49  C   -0.277108   0.027851
    50  H    0.224641  -0.000968
    51  C   -0.241914   0.043852
    52  H    0.179808  -0.002065
    53  C   -0.221223  -0.029451
    54  H    0.163878   0.000869
    55  C   -0.273093  -0.021822
    56  H    0.175015   0.000472
    57  C   -0.344410   0.052814
    58  H    0.181266  -0.002770
    59  C   -0.254017   0.065686
    60  H    0.167866  -0.004540
    61  C   -0.272933  -0.021823
    62  H    0.175015   0.000472
    63  C   -0.226575   0.027908
    64  H    0.159672  -0.001762
    65  C   -0.110651   0.032077
    66  H    0.201948  -0.002104
    67  C   -0.143641  -0.006751
    68  H    0.170044  -0.001295
 Sum of Mulliken charges =   1.00000   1.00000

 Dipole moment (field-independent basis, Debye):
    X=              0.0002    Y=              2.4551    Z=             -0.0003  Tot=              2.4551
 Quadrupole moment (field-independent basis, Debye-Ang):
   XX=           -222.4386   YY=           -174.9537   ZZ=           -176.5281
   XY=              0.0029   XZ=             -1.8871   YZ=              0.0011

 Normal termination of Gaussian 16 at Fri Mar 21 17:01:37 2025.
