 Gaussian 16, Revision A.03,
 Gaussian 16:  ES64L-G16RevA.03 25-Dec-2016

 --------------------------------------------
 #p opt UM062X/6-311+G** nosymm int=superfine
 --------------------------------------------

 -------------------
 Title Card Required
 -------------------
 Symbolic Z-matrix:
 Charge =  0 Multiplicity = 1

 SCF Done:  E(UM062X) =  -115.677038261     A.U. after   10 cycles
 SCF Done:  E(UM062X) =  -115.680330949     A.U. after   10 cycles
 SCF Done:  E(UM062X) =  -115.680426034     A.U. after    9 cycles
 SCF Done:  E(UM062X) =  -115.680426525     A.U. after    6 cycles
 Optimization completed.
    -- Stationary point found.

                          Input orientation:
 ---------------------------------------------------------------------
 Center     Atomic      Atomic             Coordinates (Angstroms)
 Number     Number       Type             X           Y           Z
 ---------------------------------------------------------------------
      1          6           0       -0.832203    0.000000    0.000000
      2          8           0        0.832203    0.000000    0.000000
      3          1           0        1.051188   -0.936139    0.000420
      4          1           0       -1.156785   -0.499865    0.907694
      5          1           0       -1.069603    1.056846   -0.000668
      6          1           0       -1.156807   -0.501010   -0.907056
 ---------------------------------------------------------------------

 Alpha  occ. eigenvalues --  -19.62015 -10.59829  -1.08817  -0.78822  -0.54788
 Alpha  occ. eigenvalues --   -0.51132  -0.47692  -0.41763  -0.36085
 Alpha virt. eigenvalues --    0.01298   0.02232   0.05201   0.05472   0.13701
 Alpha virt. eigenvalues --    0.15924   0.17850   0.18395   0.20380   0.23133
 Alpha virt. eigenvalues --    0.23790   0.24256   0.32718   0.42223   0.43909

  Beta  occ. eigenvalues --  -19.62015 -10.59829  -1.08817  -0.78822  -0.54788
  Beta  occ. eigenvalues --   -0.51132  -0.47692  -0.41763  -0.36085
  Beta virt. eigenvalues --    0.01298   0.02232   0.05201   0.05472   0.13701
  Beta virt. eigenvalues --    0.15924   0.17850   0.18395   0.20380   0.23133
  Beta virt. eigenvalues --    0.23790   0.24256   0.32718   0.42223   0.43909

 Mulliken charges and spin densities:
               1          2
     1  C   -0.303187   0.000000
     2  O   -0.444427  -0.000000
     3  H    0.247002   0.000000
     4  H    0.161147  -0.000000
     5  H    0.178325  -0.000000
     6  H    0.161139  -0.000000
 Sum of Mulliken charges =  -0.00000  -0.00000

 Dipole moment (field-independent basis, Debye):
    X=             -1.9992    Y=             -1.5397    Z=              0.0007  Tot=              2.5234
 Quadrupole moment (field-independent basis, Debye-Ang):
   XX=            -13.4838   YY=            -11.5400   ZZ=            -13.8235
   XY=             -2.1119   XZ=              0.0010   YZ=             -0.0010

 Normal termination of Gaussian 16 at Mon Apr 21 18:40:13 2025.
