 Gaussian 16, Revision A.03,
 Gaussian 16:  ES64L-G16RevA.03 25-Dec-2016

 --------------------------------------------
 #p opt UM062X/6-311+G** nosymm int=superfine
 --------------------------------------------

 -------------------
 Title Card Required
 -------------------
 Symbolic Z-matrix:
 Charge =  0 Multiplicity = 1

 SCF Done:  E(UM062X) =  -94.2502287646     A.U. after   12 cycles
 SCF Done:  E(UM062X) =  -94.2538014331     A.U. after   11 cycles
 SCF Done:  E(UM062X) =  -94.2551247345     A.U. after   17 cycles
 SCF Done:  E(UM062X) =  -94.2552706012     A.U. after    9 cycles
 SCF Done:  E(UM062X) =  -94.2558793197     A.U. after   17 cycles
 SCF Done:  E(UM062X) =  -94.2570244125     A.U. after   25 cycles
 SCF Done:  E(UM062X) =  -94.2578904014     A.U. after   19 cycles
 SCF Done:  E(UM062X) =  -94.2586667311     A.U. after   54 cycles
 SCF Done:  E(UM062X) =  -94.2587500579     A.U. after   54 cycles
 SCF Done:  E(UM062X) =  -94.2587710724     A.U. after   54 cycles
 SCF Done:  E(UM062X) =  -94.2588093761     A.U. after  108 cycles
 SCF Done:  E(UM062X) =  -94.2588642534     A.U. after   56 cycles
 SCF Done:  E(UM062X) =  -94.2589565050     A.U. after   66 cycles
 SCF Done:  E(UM062X) =  -94.2590671876     A.U. after   16 cycles
 SCF Done:  E(UM062X) =  -94.2591562672     A.U. after   39 cycles
 SCF Done:  E(UM062X) =  -94.2592604514     A.U. after   58 cycles
 SCF Done:  E(UM062X) =  -94.2592712680     A.U. after   38 cycles
 SCF Done:  E(UM062X) =  -94.2592721348     A.U. after   10 cycles
 Optimization completed.
    -- Stationary point found.

                          Input orientation:
 ---------------------------------------------------------------------
 Center     Atomic      Atomic             Coordinates (Angstroms)
 Number     Number       Type             X           Y           Z
 ---------------------------------------------------------------------
      1          6           0       -1.956637    0.000000    0.000000
      2          7           0        1.956637    0.000000    0.000000
      3          1           0       -2.646922   -0.864441   -0.032881
      4          1           0        0.915241   -0.000115   -0.000003
      5          1           0       -2.647580    0.863967    0.030053
 ---------------------------------------------------------------------

 Alpha  occ. eigenvalues --  -14.81469 -10.62662  -0.87828  -0.77373  -0.49464
 Alpha  occ. eigenvalues --   -0.44786  -0.33473  -0.32356
 Alpha virt. eigenvalues --   -0.11290  -0.09945   0.01193   0.05314   0.06338
 Alpha virt. eigenvalues --    0.07400   0.13525   0.13797   0.15534   0.17271
 Alpha virt. eigenvalues --    0.17968   0.18139   0.21625   0.43078   0.47423

  Beta  occ. eigenvalues --  -14.81469 -10.62662  -0.87828  -0.77373  -0.49464
  Beta  occ. eigenvalues --   -0.44786  -0.33473  -0.32356
  Beta virt. eigenvalues --   -0.11290  -0.09945   0.01193   0.05314   0.06338
  Beta virt. eigenvalues --    0.07400   0.13525   0.13797   0.15534   0.17271
  Beta virt. eigenvalues --    0.17968   0.18139   0.21625   0.43078   0.47423

 Mulliken charges and spin densities:
               1          2
     1  C   -0.300168  -0.000000
     2  N   -0.244187  -0.000000
     3  H    0.143622  -0.000000
     4  H    0.257091   0.000000
     5  H    0.143642   0.000000
 Sum of Mulliken charges =   0.00000  -0.00000

 Dipole moment (field-independent basis, Debye):
    X=             -4.1365    Y=             -0.0008    Z=             -0.0040  Tot=              4.1365
 Quadrupole moment (field-independent basis, Debye-Ang):
   XX=            -13.5157   YY=            -12.2493   ZZ=            -14.8896
   XY=              0.0001   XZ=              0.0034   YZ=              0.0915

 Normal termination of Gaussian 16 at Mon Apr 21 18:35:25 2025.
