 Gaussian 16, Revision A.03,
 Gaussian 16:  ES64L-G16RevA.03 25-Dec-2016

 --------------------------------------------
 #p opt UM062X/6-311+G** nosymm int=superfine
 --------------------------------------------

 -------------------
 Title Card Required
 -------------------
 Symbolic Z-matrix:
 Charge =  0 Multiplicity = 1

 SCF Done:  E(UM062X) =  -51.7756919322     A.U. after   10 cycles
 SCF Done:  E(UM062X) =  -51.7812402937     A.U. after    9 cycles
 SCF Done:  E(UM062X) =  -51.7847224976     A.U. after   11 cycles
 SCF Done:  E(UM062X) =  -51.7847261619     A.U. after   14 cycles
 SCF Done:  E(UM062X) =  -51.7847259042     A.U. after   10 cycles
 SCF Done:  E(UM062X) =  -51.7847260276     A.U. after    9 cycles
 Optimization completed.
    -- Stationary point found.

                          Input orientation:
 ---------------------------------------------------------------------
 Center     Atomic      Atomic             Coordinates (Angstroms)
 Number     Number       Type             X           Y           Z
 ---------------------------------------------------------------------
      1          5           0       -2.270607    0.000000    0.000000
      2          5           0        2.270607    0.000000    0.000000
      3          1           0       -2.720814   -1.090229    0.000045
      4          1           0        2.720814    1.090213   -0.005826
      5          1           0       -2.720816    1.090228    0.000234
      6          1           0        2.720816   -1.090211    0.006101
 ---------------------------------------------------------------------

 Alpha  occ. eigenvalues --   -7.11667  -7.11667  -0.58079  -0.57903  -0.45511
 Alpha  occ. eigenvalues --   -0.45476  -0.19072
 Alpha virt. eigenvalues --   -0.08825  -0.05168  -0.04477   0.02223   0.03037
 Alpha virt. eigenvalues --    0.03833   0.05308   0.06107   0.07125   0.08408
 Alpha virt. eigenvalues --    0.09937   0.15028   0.15626   0.17283   0.23039

  Beta  occ. eigenvalues --   -7.11667  -7.11667  -0.58079  -0.57903  -0.45511
  Beta  occ. eigenvalues --   -0.45476  -0.19072
  Beta virt. eigenvalues --   -0.08825  -0.05168  -0.04477   0.02223   0.03037
  Beta virt. eigenvalues --    0.03833   0.05308   0.06107   0.07125   0.08408
  Beta virt. eigenvalues --    0.09937   0.15028   0.15626   0.17283   0.23039

 Mulliken charges and spin densities:
               1          2
     1  B   -0.064907  -0.000001
     2  B   -0.064907   0.000001
     3  H    0.032453  -0.000000
     4  H    0.032453   0.000000
     5  H    0.032453  -0.000000
     6  H    0.032453   0.000000
 Sum of Mulliken charges =  -0.00000  -0.00000

 Dipole moment (field-independent basis, Debye):
    X=              0.0000    Y=              0.0000    Z=              0.0004  Tot=              0.0004
 Quadrupole moment (field-independent basis, Debye-Ang):
   XX=             -9.8414   YY=            -16.9795   ZZ=            -14.6800
   XY=             -0.0000   XZ=              0.0000   YZ=              0.0062

 Normal termination of Gaussian 16 at Mon Apr 21 17:19:32 2025.
