 Gaussian 16, Revision A.03,
 Gaussian 16:  ES64L-G16RevA.03 25-Dec-2016

 --------------------------------------------
 #p opt UM062X/6-311+G** nosymm int=superfine
 --------------------------------------------

 -------------------
 Title Card Required
 -------------------
 Symbolic Z-matrix:
 Charge =  0 Multiplicity = 1

 SCF Done:  E(UM062X) =  -95.5724127690     A.U. after   17 cycles
 SCF Done:  E(UM062X) =  -95.5871921625     A.U. after   13 cycles
 SCF Done:  E(UM062X) =  -95.5974430786     A.U. after   14 cycles
 SCF Done:  E(UM062X) =  -95.5978428658     A.U. after   13 cycles
 SCF Done:  E(UM062X) =  -95.5983278252     A.U. after   13 cycles
 SCF Done:  E(UM062X) =  -95.5986994502     A.U. after   13 cycles
 SCF Done:  E(UM062X) =  -95.5988243705     A.U. after   14 cycles
 SCF Done:  E(UM062X) =  -95.5988586829     A.U. after   12 cycles
 SCF Done:  E(UM062X) =  -95.5988617062     A.U. after   13 cycles
 SCF Done:  E(UM062X) =  -95.5988621095     A.U. after   10 cycles
 SCF Done:  E(UM062X) =  -95.5988635875     A.U. after   11 cycles
 SCF Done:  E(UM062X) =  -95.5988645016     A.U. after   11 cycles
 SCF Done:  E(UM062X) =  -95.5988648743     A.U. after   11 cycles
 Optimization completed.
    -- Stationary point found.

                          Input orientation:
 ---------------------------------------------------------------------
 Center     Atomic      Atomic             Coordinates (Angstroms)
 Number     Number       Type             X           Y           Z
 ---------------------------------------------------------------------
      1          6           0       -2.055542    0.000000    0.000000
      2          7           0        2.055542    0.000000    0.000000
      3          1           0        1.998387   -1.014643    0.140958
      4          1           0       -2.026296    1.080010    0.014198
      5          1           0        1.999169    0.371459    0.954716
      6          1           0       -2.025868   -0.525828   -0.943452
      7          1           0       -2.176471   -0.550063    0.922325
 ---------------------------------------------------------------------

 Alpha  occ. eigenvalues --  -14.74700 -10.62167  -0.90146  -0.81181  -0.53359
 Alpha  occ. eigenvalues --   -0.53227  -0.50666  -0.35890  -0.24147
 Alpha virt. eigenvalues --   -0.15270   0.01746   0.04541   0.04823   0.06998
 Alpha virt. eigenvalues --    0.09943   0.12964   0.15785   0.16675   0.16716
 Alpha virt. eigenvalues --    0.17481   0.20381   0.21866   0.26655   0.41014

  Beta  occ. eigenvalues --  -14.74700 -10.62167  -0.90146  -0.81181  -0.53359
  Beta  occ. eigenvalues --   -0.53227  -0.50666  -0.35890  -0.24147
  Beta virt. eigenvalues --   -0.15270   0.01746   0.04541   0.04823   0.06998
  Beta virt. eigenvalues --    0.09943   0.12964   0.15785   0.16675   0.16716
  Beta virt. eigenvalues --    0.17481   0.20381   0.21866   0.26655   0.41014

 Mulliken charges and spin densities:
               1          2
     1  C   -0.423771   0.000000
     2  N   -0.579005  -0.000000
     3  H    0.209548   0.000000
     4  H    0.197486  -0.000000
     5  H    0.209554   0.000000
     6  H    0.197561  -0.000000
     7  H    0.188629  -0.000000
 Sum of Mulliken charges =  -0.00000   0.00000

 Dipole moment (field-independent basis, Debye):
    X=             -3.6279    Y=             -1.0045    Z=              1.7113  Tot=              4.1352
 Quadrupole moment (field-independent basis, Debye-Ang):
   XX=            -15.9827   YY=            -13.4623   ZZ=            -14.2750
   XY=             -2.0750   XZ=              3.5385   YZ=              0.7285

 Normal termination of Gaussian 16 at Mon Apr 21 18:19:55 2025.
