 Gaussian 16, Revision A.03,
 Gaussian 16:  ES64L-G16RevA.03 25-Dec-2016

 ---------------------------------------
 #p UM062X/6-311+G** force int=superfine
 ---------------------------------------

 -------------------
 Title Card Required
 -------------------
 Symbolic Z-matrix:
 Charge =  1 Multiplicity = 2

                         Standard orientation:
 ---------------------------------------------------------------------
 Center     Atomic      Atomic             Coordinates (Angstroms)
 Number     Number       Type             X           Y           Z
 ---------------------------------------------------------------------
      1          6           0        0.681453    0.067648   -0.000483
      2          6           0       -0.681453   -0.067648    0.000461
      3          1           0       -1.117654   -1.062246    0.000259
      4          1           0        1.197299   -0.610159    0.761555
      5          1           0       -1.197331    0.610249   -0.761456
      6          1           0       -1.197298    0.612336    0.759669
      7          1           0        1.117653    1.062246   -0.000327
      8          1           0        1.197330   -0.612423   -0.759573
 ---------------------------------------------------------------------

 SCF Done:  E(UM062X) =  -79.3646091980     A.U. after   10 cycles

 The electronic state is 2-A.
 Alpha  occ. eigenvalues --  -10.82266 -10.82183  -1.18015  -1.00103  -0.82349
 Alpha  occ. eigenvalues --   -0.77736  -0.77454  -0.69976  -0.64360
 Alpha virt. eigenvalues --   -0.16179  -0.13550  -0.12122  -0.11861  -0.08459
 Alpha virt. eigenvalues --   -0.07279  -0.06750  -0.06654  -0.05424  -0.02036
 Alpha virt. eigenvalues --   -0.01105  -0.00629   0.05937   0.06437   0.09543

  Beta  occ. eigenvalues --  -10.82176 -10.82084  -1.16166  -0.96391  -0.81301
  Beta  occ. eigenvalues --   -0.75629  -0.71824  -0.68573
  Beta virt. eigenvalues --   -0.44389  -0.16191  -0.13598  -0.11885  -0.11866
  Beta virt. eigenvalues --   -0.08475  -0.06969  -0.06767  -0.05210  -0.04874
  Beta virt. eigenvalues --   -0.01757  -0.00897  -0.00470   0.06062   0.06863

 Mulliken charges and spin densities:
               1          2
     1  C   -0.407535   0.170701
     2  C   -0.407532   0.170703
     3  H    0.257251  -0.010394
     4  H    0.325342   0.170581
     5  H    0.325337   0.170550
     6  H    0.324946   0.169142
     7  H    0.257251  -0.010393
     8  H    0.324941   0.169110
 Sum of Mulliken charges =   1.00000   1.00000

 Dipole moment (field-independent basis, Debye):
    X=             -0.0000    Y=              0.0000    Z=              0.0002  Tot=              0.0002
 Quadrupole moment (field-independent basis, Debye-Ang):
   XX=             -6.2104   YY=            -10.0191   ZZ=            -11.2263
   XY=             -1.7542   XZ=              0.0105   YZ=             -0.0018

 Normal termination of Gaussian 16 at Tue Nov 19 08:41:54 2024.
