 Gaussian 16, Revision A.03,
 Gaussian 16:  ES64L-G16RevA.03 25-Dec-2016

 ---------------------------------------------------
 #p UM062X/6-311+G** force int=superfine pop=saveNBO
 ---------------------------------------------------

 -------------------
 Title Card Required
 -------------------
 Symbolic Z-matrix:
 Charge =  0 Multiplicity = 1

                         Standard orientation:
 ---------------------------------------------------------------------
 Center     Atomic      Atomic             Coordinates (Angstroms)
 Number     Number       Type             X           Y           Z
 ---------------------------------------------------------------------
      1         16           0        0.000000    0.000000    2.350200
      2         16           0        0.000000    0.000000   -2.350200
 ---------------------------------------------------------------------

 SCF Done:  E(UM062X) =  -796.004905462     A.U. after    9 cycles

 Unable to determine electronic state:  partially filled degenerate orbitals.
 Alpha  occ. eigenvalues --  -89.98370 -89.98370  -8.34220  -8.34220  -6.26244
 Alpha  occ. eigenvalues --   -6.26244  -6.26228  -6.26228  -6.25410  -6.25410
 Alpha  occ. eigenvalues --   -0.77766  -0.77443  -0.34628  -0.34483  -0.31024
 Alpha  occ. eigenvalues --   -0.30370
 Alpha virt. eigenvalues --   -0.24286  -0.23599   0.02808   0.03965   0.04591
 Alpha virt. eigenvalues --    0.04990   0.06721   0.06881   0.07328   0.11552
 Alpha virt. eigenvalues --    0.30667   0.33333   0.34152   0.34974   0.35799

  Beta  occ. eigenvalues --  -89.98370 -89.98370  -8.34220  -8.34220  -6.26244
  Beta  occ. eigenvalues --   -6.26244  -6.26228  -6.26228  -6.25410  -6.25410
  Beta  occ. eigenvalues --   -0.77766  -0.77443  -0.34628  -0.34483  -0.31024
  Beta  occ. eigenvalues --   -0.30370
  Beta virt. eigenvalues --   -0.24286  -0.23599   0.02808   0.03965   0.04591
  Beta virt. eigenvalues --    0.04990   0.06721   0.06881   0.07328   0.11552
  Beta virt. eigenvalues --    0.30667   0.33333   0.34152   0.34974   0.35799

 Mulliken charges and spin densities:
               1          2
     1  S   -0.000000  -0.000000
     2  S   -0.000000  -0.000000
 Sum of Mulliken charges =  -0.00000  -0.00000

 Dipole moment (field-independent basis, Debye):
    X=              0.0000    Y=             -0.0000    Z=             -0.0000  Tot=              0.0000
 Quadrupole moment (field-independent basis, Debye-Ang):
   XX=            -30.4085   YY=            -25.3189   ZZ=            -23.1918
   XY=              0.0000   XZ=             -0.0000   YZ=              0.0000

 Summary of Natural Population Analysis:

                                       Natural Population
                Natural  -----------------------------------------------
    Atom  No    Charge         Core      Valence    Rydberg      Total
 -----------------------------------------------------------------------
      S    1    0.00000      5.00000     2.99944    0.00057     8.00000
      S    2    0.00000      5.00000     2.99944    0.00057     8.00000
 =======================================================================
   * Total *    0.00000      9.99999     5.99887    0.00113    16.00000

 Normal termination of Gaussian 16 at Mon Apr 21 20:09:31 2025.
