 Gaussian 16, Revision A.03,
 Gaussian 16:  ES64L-G16RevA.03 25-Dec-2016

 --------------------------------------------
 #p opt UM062X/6-311+G** nosymm int=superfine
 --------------------------------------------

 -------------------
 Title Card Required
 -------------------
 Symbolic Z-matrix:
 Charge =  0 Multiplicity = 1

 SCF Done:  E(UM062X) =  -438.457593975     A.U. after   14 cycles
 SCF Done:  E(UM062X) =  -438.471320759     A.U. after   13 cycles
 SCF Done:  E(UM062X) =  -438.478816790     A.U. after   13 cycles
 SCF Done:  E(UM062X) =  -438.478882982     A.U. after   11 cycles
 SCF Done:  E(UM062X) =  -438.478888173     A.U. after   11 cycles
 SCF Done:  E(UM062X) =  -438.478900796     A.U. after   15 cycles
 SCF Done:  E(UM062X) =  -438.478925258     A.U. after   11 cycles
 SCF Done:  E(UM062X) =  -438.478925797     A.U. after   12 cycles
 SCF Done:  E(UM062X) =  -438.478925994     A.U. after   13 cycles
 SCF Done:  E(UM062X) =  -438.478926041     A.U. after    8 cycles
 SCF Done:  E(UM062X) =  -438.478926093     A.U. after   13 cycles
 SCF Done:  E(UM062X) =  -438.478926224     A.U. after    9 cycles
 SCF Done:  E(UM062X) =  -438.461691283     A.U. after   25 cycles
 SCF Done:  E(UM062X) =  -438.478862336     A.U. after   26 cycles
 SCF Done:  E(UM062X) =  -438.478927024     A.U. after   29 cycles
 SCF Done:  E(UM062X) =  -438.478926795     A.U. after   15 cycles
 SCF Done:  E(UM062X) =  -438.478927418     A.U. after   15 cycles
 SCF Done:  E(UM062X) =  -438.478927456     A.U. after    9 cycles
 Optimization completed.
    -- Stationary point found.

                          Input orientation:
 ---------------------------------------------------------------------
 Center     Atomic      Atomic             Coordinates (Angstroms)
 Number     Number       Type             X           Y           Z
 ---------------------------------------------------------------------
      1          6           0       -2.385220    0.000000    0.000000
      2         16           0        2.385220    0.000000    0.000000
      3          1           0        2.373553   -1.342933    0.069323
      4          1           0       -2.343600    1.080284    0.007265
      5          1           0       -2.417518   -0.532697   -0.940204
      6          1           0       -2.419970   -0.545141    0.932953
 ---------------------------------------------------------------------

 Alpha  occ. eigenvalues --  -89.87198 -10.65131  -8.23540  -6.15576  -6.15523
 Alpha  occ. eigenvalues --   -6.14968  -0.83754  -0.75189  -0.55813  -0.55762
 Alpha  occ. eigenvalues --   -0.41738  -0.27679  -0.25236
 Alpha virt. eigenvalues --   -0.17957   0.00694   0.03516   0.03730   0.05369
 Alpha virt. eigenvalues --    0.07371   0.08150   0.08384   0.10596   0.13060
 Alpha virt. eigenvalues --    0.15182   0.15212   0.19526   0.35196   0.38137

  Beta  occ. eigenvalues --  -89.87198 -10.65131  -8.23540  -6.15576  -6.15523
  Beta  occ. eigenvalues --   -6.14968  -0.83754  -0.75189  -0.55813  -0.55762
  Beta  occ. eigenvalues --   -0.41738  -0.27679  -0.25236
  Beta virt. eigenvalues --   -0.17957   0.00694   0.03516   0.03730   0.05369
  Beta virt. eigenvalues --    0.07371   0.08150   0.08384   0.10596   0.13060
  Beta virt. eigenvalues --    0.15182   0.15212   0.19526   0.35196   0.38137

 Mulliken charges and spin densities:
               1          2
     1  C   -0.357053  -0.000002
     2  S   -0.298523   0.000002
     3  H    0.050267  -0.000000
     4  H    0.203576   0.000000
     5  H    0.201001   0.000000
     6  H    0.200732   0.000000
 Sum of Mulliken charges =  -0.00000  -0.00000

 Dipole moment (field-independent basis, Debye):
    X=             -5.9624    Y=             -0.9616    Z=              0.0499  Tot=              6.0397
 Quadrupole moment (field-independent basis, Debye-Ang):
   XX=            -21.2583   YY=            -19.6220   ZZ=            -23.6514
   XY=             -2.3221   XZ=              0.1229   YZ=             -0.2084

 Normal termination of Gaussian 16 at Mon Apr 21 19:44:01 2025.
