 Gaussian 16, Revision A.03,
 Gaussian 16:  ES64L-G16RevA.03 25-Dec-2016

 --------------------------------------------
 #p opt UM062X/6-311+G** nosymm int=superfine
 --------------------------------------------

 -------------------
 Title Card Required
 -------------------
 Symbolic Z-matrix:
 Charge = -1 Multiplicity = 2

 SCF Done:  E(UM062X) =  -51.9165917347     A.U. after   11 cycles
 SCF Done:  E(UM062X) =  -51.9199304166     A.U. after   10 cycles
 SCF Done:  E(UM062X) =  -51.9213248165     A.U. after   10 cycles
 SCF Done:  E(UM062X) =  -51.9213365908     A.U. after   11 cycles
 SCF Done:  E(UM062X) =  -51.9213164734     A.U. after   12 cycles
 SCF Done:  E(UM062X) =  -51.9213290367     A.U. after   12 cycles
 SCF Done:  E(UM062X) =  -51.9213361717     A.U. after    8 cycles
 Optimization completed.
    -- Stationary point found.

                          Input orientation:
 ---------------------------------------------------------------------
 Center     Atomic      Atomic             Coordinates (Angstroms)
 Number     Number       Type             X           Y           Z
 ---------------------------------------------------------------------
      1          5           0       -1.347274    0.000000    0.000000
      2          5           0        1.347274    0.000000    0.000000
      3          1           0       -1.900691   -1.059454    0.001603
      4          1           0        1.900691    1.059455    0.001094
      5          1           0       -1.900691    1.059455    0.001159
      6          1           0        1.900691   -1.059454    0.001668
 ---------------------------------------------------------------------

 Alpha  occ. eigenvalues --   -6.87010  -6.87005  -0.37350  -0.35406  -0.22482
 Alpha  occ. eigenvalues --   -0.21460  -0.05146   0.01319
 Alpha virt. eigenvalues --    0.13962   0.15409   0.16665   0.19053   0.19223
 Alpha virt. eigenvalues --    0.22473   0.22562   0.23710   0.24222   0.26032
 Alpha virt. eigenvalues --    0.32840   0.34675   0.35487   0.42047   0.49783

  Beta  occ. eigenvalues --   -6.86979  -6.86975  -0.35721  -0.34144  -0.22346
  Beta  occ. eigenvalues --   -0.21418  -0.03962
  Beta virt. eigenvalues --    0.10823   0.13792   0.14242   0.14462   0.16199
  Beta virt. eigenvalues --    0.17687   0.19119   0.19536   0.22066   0.25314
  Beta virt. eigenvalues --    0.25911   0.31892   0.34304   0.34779   0.41813

 Mulliken charges and spin densities:
               1          2
     1  B   -0.411020   0.545416
     2  B   -0.411020   0.545416
     3  H   -0.044490  -0.022708
     4  H   -0.044490  -0.022708
     5  H   -0.044490  -0.022708
     6  H   -0.044490  -0.022708
 Sum of Mulliken charges =  -1.00000   1.00000

 Dipole moment (field-independent basis, Debye):
    X=              0.0000    Y=              0.0000    Z=              0.0017  Tot=              0.0017
 Quadrupole moment (field-independent basis, Debye-Ang):
   XX=            -31.6443   YY=            -23.4539   ZZ=            -25.4713
   XY=             -0.0000   XZ=             -0.0000   YZ=             -0.0005

 Normal termination of Gaussian 16 at Mon Apr 21 17:18:44 2025.
