 Gaussian 16, Revision A.03,
 Gaussian 16:  ES64L-G16RevA.03 25-Dec-2016

 --------------------------------------------
 #p opt UM062X/6-311+G** nosymm int=superfine
 --------------------------------------------

 -------------------
 Title Card Required
 -------------------
 Symbolic Z-matrix:
 Charge =  0 Multiplicity = 1

 SCF Done:  E(UM062X) =  -79.7809104260     A.U. after    8 cycles
 SCF Done:  E(UM062X) =  -79.7851335844     A.U. after    8 cycles
 SCF Done:  E(UM062X) =  -79.7851790209     A.U. after    7 cycles
 Optimization completed.
    -- Stationary point found.

                          Input orientation:
 ---------------------------------------------------------------------
 Center     Atomic      Atomic             Coordinates (Angstroms)
 Number     Number       Type             X           Y           Z
 ---------------------------------------------------------------------
      1          6           0       -0.694828    0.000000    0.000000
      2          6           0        0.694899    0.000000    0.000000
      3          1           0        1.121531   -0.872986    0.505171
      4          1           0       -1.121444   -0.873989   -0.503459
      5          1           0        1.121516    0.873990    0.503455
      6          1           0        1.121551   -0.000967   -1.008615
      7          1           0       -1.121460    0.872985   -0.505174
      8          1           0       -1.121482    0.000965    1.008614
 ---------------------------------------------------------------------

 Alpha  occ. eigenvalues --  -10.51279 -10.51205  -0.87809  -0.69229  -0.51435
 Alpha  occ. eigenvalues --   -0.51434  -0.45838  -0.38660  -0.38660
 Alpha virt. eigenvalues --    0.02151   0.04178   0.05309   0.05309   0.08800
 Alpha virt. eigenvalues --    0.08851   0.08851   0.14089   0.19068   0.19069
 Alpha virt. eigenvalues --    0.20517   0.20517   0.24100   0.27866   0.33430

  Beta  occ. eigenvalues --  -10.51279 -10.51205  -0.87809  -0.69229  -0.51435
  Beta  occ. eigenvalues --   -0.51434  -0.45838  -0.38660  -0.38660
  Beta virt. eigenvalues --    0.02151   0.04178   0.05309   0.05309   0.08800
  Beta virt. eigenvalues --    0.08851   0.08851   0.14089   0.19068   0.19069
  Beta virt. eigenvalues --    0.20517   0.20517   0.24100   0.27866   0.33430

 Mulliken charges and spin densities:
               1          2
     1  C   -0.456151  -0.000000
     2  C   -0.456151   0.000000
     3  H    0.152050  -0.000000
     4  H    0.152050   0.000000
     5  H    0.152050  -0.000000
     6  H    0.152051  -0.000000
     7  H    0.152050   0.000000
     8  H    0.152051   0.000000
 Sum of Mulliken charges =  -0.00000  -0.00000

 Dipole moment (field-independent basis, Debye):
    X=             -0.0000    Y=             -0.0000    Z=             -0.0000  Tot=              0.0000
 Quadrupole moment (field-independent basis, Debye-Ang):
   XX=            -15.6322   YY=            -14.9667   ZZ=            -14.9667
   XY=             -0.0000   XZ=             -0.0001   YZ=             -0.0001

 Normal termination of Gaussian 16 at Tue Nov 19 11:50:32 2024.
