 Gaussian 16, Revision A.03,
 Gaussian 16:  ES64L-G16RevA.03 25-Dec-2016

 --------------------------------------------
 #p opt UM062X/6-311+G** nosymm int=superfine
 --------------------------------------------

 -------------------
 Title Card Required
 -------------------
 Symbolic Z-matrix:
 Charge =  1 Multiplicity = 2

 SCF Done:  E(UM062X) =  -580.879201623     A.U. after   14 cycles
 SCF Done:  E(UM062X) =  -580.886400230     A.U. after   12 cycles
 SCF Done:  E(UM062X) =  -580.888372726     A.U. after   11 cycles
 SCF Done:  E(UM062X) =  -580.888375207     A.U. after    9 cycles
 SCF Done:  E(UM062X) =  -580.888375231     A.U. after    8 cycles
 SCF Done:  E(UM062X) =  -580.888477903     A.U. after   16 cycles
 SCF Done:  E(UM062X) =  -580.888566635     A.U. after   14 cycles
 SCF Done:  E(UM062X) =  -580.888553047     A.U. after   16 cycles
 SCF Done:  E(UM062X) =  -580.888643366     A.U. after   15 cycles
 SCF Done:  E(UM062X) =  -580.888593215     A.U. after   15 cycles
 SCF Done:  E(UM062X) =  -580.888072765     A.U. after   18 cycles
 SCF Done:  E(UM062X) =  -580.891797350     A.U. after   18 cycles
 SCF Done:  E(UM062X) =  -580.887841158     A.U. after   18 cycles
 SCF Done:  E(UM062X) =  -580.892357732     A.U. after   18 cycles
 SCF Done:  E(UM062X) =  -580.893979868     A.U. after   17 cycles
 SCF Done:  E(UM062X) =  -580.887673870     A.U. after   18 cycles
 SCF Done:  E(UM062X) =  -580.894190211     A.U. after   16 cycles
 SCF Done:  E(UM062X) =  -580.894201079     A.U. after   15 cycles
 SCF Done:  E(UM062X) =  -580.894205875     A.U. after   14 cycles
 SCF Done:  E(UM062X) =  -580.894206096     A.U. after   14 cycles
 Optimization completed.
    -- Stationary point found.

                          Input orientation:
 ---------------------------------------------------------------------
 Center     Atomic      Atomic             Coordinates (Angstroms)
 Number     Number       Type             X           Y           Z
 ---------------------------------------------------------------------
      1         14           0       -1.866295    0.000000    0.000000
      2         14           0        1.866295    0.000000    0.000000
      3          1           0       -2.777671   -1.175180    0.043701
      4          1           0        2.101003    1.264161   -0.729565
      5          1           0       -2.781561    1.172875    0.015241
      6          1           0        2.099866   -1.250068   -0.753833
 ---------------------------------------------------------------------

 Alpha  occ. eigenvalues --  -67.28377 -67.22397  -5.82696  -5.76949  -4.14087
 Alpha  occ. eigenvalues --   -4.13856  -4.13291  -4.08331  -4.07663  -4.07640
 Alpha  occ. eigenvalues --   -0.81952  -0.76265  -0.64465  -0.58174  -0.52402
 Alpha  occ. eigenvalues --   -0.46672
 Alpha virt. eigenvalues --   -0.28811  -0.25590  -0.12715  -0.12513  -0.10337
 Alpha virt. eigenvalues --   -0.09259  -0.09054  -0.08150  -0.07179  -0.06181
 Alpha virt. eigenvalues --   -0.05704  -0.05592  -0.04611  -0.02502   0.12363

  Beta  occ. eigenvalues --  -67.27779 -67.22365  -5.82263  -5.76923  -4.13669
  Beta  occ. eigenvalues --   -4.13094  -4.12674  -4.08321  -4.07652  -4.07573
  Beta  occ. eigenvalues --   -0.78551  -0.76066  -0.62833  -0.58069  -0.46943
  Beta virt. eigenvalues --   -0.31142  -0.27300  -0.25399  -0.13249  -0.12436
  Beta virt. eigenvalues --   -0.10664  -0.09032  -0.08225  -0.07086  -0.07027
  Beta virt. eigenvalues --   -0.06053  -0.05665  -0.04778  -0.04649  -0.02807

 Mulliken charges and spin densities:
               1          2
     1  Si   0.418921   0.034411
     2  Si   0.633984   0.823261
     3  H   -0.034365   0.005234
     4  H    0.007868   0.065869
     5  H   -0.034248   0.005400
     6  H    0.007840   0.065825
 Sum of Mulliken charges =   1.00000   1.00000

 Dipole moment (field-independent basis, Debye):
    X=              2.0289    Y=              0.0013    Z=             -0.1532  Tot=              2.0347
 Quadrupole moment (field-independent basis, Debye-Ang):
   XX=             -2.5179   YY=            -25.3127   ZZ=            -23.1666
   XY=             -0.0009   XZ=              0.0313   YZ=              0.0370

 Normal termination of Gaussian 16 at Mon Apr 21 20:28:24 2025.
