 Gaussian 16, Revision A.03,
 Gaussian 16:  ES64L-G16RevA.03 25-Dec-2016

 --------------------------------------------
 #p opt UM062X/6-311+G** nosymm int=superfine
 --------------------------------------------

 -------------------
 Title Card Required
 -------------------
 Symbolic Z-matrix:
 Charge =  0 Multiplicity = 1

 SCF Done:  E(UM062X) =  -579.888903771     A.U. after   13 cycles
 SCF Done:  E(UM062X) =  -579.896203862     A.U. after   11 cycles
 SCF Done:  E(UM062X) =  -579.896397460     A.U. after   10 cycles
 SCF Done:  E(UM062X) =  -579.896438560     A.U. after   10 cycles
 SCF Done:  E(UM062X) =  -579.923209978     A.U. after   19 cycles
 SCF Done:  E(UM062X) =  -579.958083850     A.U. after   11 cycles
 SCF Done:  E(UM062X) =  -579.991174511     A.U. after   10 cycles
 SCF Done:  E(UM062X) =  -579.981747303     A.U. after   12 cycles
 SCF Done:  E(UM062X) =  -579.992125096     A.U. after    9 cycles
 SCF Done:  E(UM062X) =  -579.992130502     A.U. after    8 cycles
 SCF Done:  E(UM062X) =  -579.992134844     A.U. after    7 cycles
 Optimization completed.
    -- Stationary point found.

                          Input orientation:
 ---------------------------------------------------------------------
 Center     Atomic      Atomic             Coordinates (Angstroms)
 Number     Number       Type             X           Y           Z
 ---------------------------------------------------------------------
      1         14           0       -1.278705    0.000000    0.000000
      2         14           0        1.278705    0.000000    0.000000
      3          1           0       -1.424896    1.510693    0.000219
      4          1           0        1.424836    1.510700   -0.000205
 ---------------------------------------------------------------------

 Alpha  occ. eigenvalues --  -67.01855 -67.01854  -5.56517  -5.56516  -3.87739
 Alpha  occ. eigenvalues --   -3.87737  -3.87206  -3.87193  -3.87071  -3.87064
 Alpha  occ. eigenvalues --   -0.58948  -0.50914  -0.36720  -0.28546  -0.24255
 Alpha virt. eigenvalues --   -0.12099  -0.04781   0.01224   0.01957   0.03729
 Alpha virt. eigenvalues --    0.03811   0.05212   0.06514   0.06890   0.07019
 Alpha virt. eigenvalues --    0.07037   0.10868   0.13729   0.26336   0.29092

  Beta  occ. eigenvalues --  -67.01855 -67.01854  -5.56517  -5.56516  -3.87739
  Beta  occ. eigenvalues --   -3.87737  -3.87206  -3.87193  -3.87071  -3.87064
  Beta  occ. eigenvalues --   -0.58948  -0.50914  -0.36720  -0.28546  -0.24255
  Beta virt. eigenvalues --   -0.12099  -0.04781   0.01224   0.01957   0.03729
  Beta virt. eigenvalues --    0.03811   0.05212   0.06514   0.06890   0.07019
  Beta virt. eigenvalues --    0.07037   0.10868   0.13729   0.26336   0.29092

 Mulliken charges and spin densities:
               1          2
     1  Si   0.150621  -0.000000
     2  Si   0.150629   0.000000
     3  H   -0.150624   0.000000
     4  H   -0.150626  -0.000000
 Sum of Mulliken charges =  -0.00000  -0.00000

 Dipole moment (field-independent basis, Debye):
    X=              0.0001    Y=              0.7126    Z=              0.0000  Tot=              0.7126
 Quadrupole moment (field-independent basis, Debye-Ang):
   XX=            -36.0528   YY=            -33.0073   ZZ=            -22.7386
   XY=             -0.0001   XZ=             -0.0007   YZ=             -0.0000

 Normal termination of Gaussian 16 at Mon Apr 21 21:25:04 2025.
