 Gaussian 16, Revision A.03,
 Gaussian 16:  ES64L-G16RevA.03 25-Dec-2016

 --------------------------------------------
 #p opt UM062X/6-311+G** nosymm int=superfine
 --------------------------------------------

 -------------------
 Title Card Required
 -------------------
 Symbolic Z-matrix:
 Charge =  1 Multiplicity = 2

 SCF Done:  E(UM062X) =  -80.1547107650     A.U. after   20 cycles
 SCF Done:  E(UM062X) =  -80.1555690926     A.U. after   16 cycles
 SCF Done:  E(UM062X) =  -80.1555719551     A.U. after   14 cycles
 Optimization completed.
    -- Stationary point found.

                          Input orientation:
 ---------------------------------------------------------------------
 Center     Atomic      Atomic             Coordinates (Angstroms)
 Number     Number       Type             X           Y           Z
 ---------------------------------------------------------------------
      1          5           0       -1.927734    0.000000    0.000000
      2          7           0        1.927734    0.000000    0.000000
      3          1           0       -3.133805   -0.000044   -0.000000
      4          1           0        2.963299    0.000480    0.000000
 ---------------------------------------------------------------------

 Alpha  occ. eigenvalues --  -14.94820  -7.53937  -1.07953  -0.86331  -0.61797
 Alpha  occ. eigenvalues --   -0.54386  -0.54386
 Alpha virt. eigenvalues --   -0.45213  -0.35070  -0.35070  -0.15825  -0.11836
 Alpha virt. eigenvalues --   -0.09959  -0.09959  -0.08656  -0.03976   0.01606
 Alpha virt. eigenvalues --    0.01606   0.03300   0.07831   0.12625   0.12625

  Beta  occ. eigenvalues --  -14.92337  -7.55171  -0.95104  -0.89968  -0.68416
  Beta  occ. eigenvalues --   -0.56129
  Beta virt. eigenvalues --   -0.36111  -0.36111  -0.19189  -0.19189  -0.14682
  Beta virt. eigenvalues --   -0.10663  -0.09794  -0.09794  -0.07031  -0.03018
  Beta virt. eigenvalues --    0.03625   0.03625   0.06401   0.08372   0.16064

 Mulliken charges and spin densities:
               1          2
     1  B    0.759601  -0.846651
     2  N   -0.243198   2.056463
     3  H    0.223118  -0.142819
     4  H    0.260480  -0.066992
 Sum of Mulliken charges =   1.00000   1.00000

 Dipole moment (field-independent basis, Debye):
    X=             -7.7839    Y=              0.0007    Z=              0.0000  Tot=              7.7839
 Quadrupole moment (field-independent basis, Debye-Ang):
   XX=             19.9639   YY=            -10.2778   ZZ=            -10.2778
   XY=              0.0022   XZ=              0.0000   YZ=              0.0000

 Normal termination of Gaussian 16 at Mon Apr 21 17:59:52 2025.
