 Gaussian 16, Revision A.03,
 Gaussian 16:  ES64L-G16RevA.03 25-Dec-2016

 ---------------------------------------------------
 #p UM062X/6-311+G** force int=superfine pop=saveNBO
 ---------------------------------------------------

 -------------------
 Title Card Required
 -------------------
 Symbolic Z-matrix:
 Charge =  0 Multiplicity = 1

                         Standard orientation:
 ---------------------------------------------------------------------
 Center     Atomic      Atomic             Coordinates (Angstroms)
 Number     Number       Type             X           Y           Z
 ---------------------------------------------------------------------
      1          8           0        0.000000    0.000000    1.393562
      2          8           0        0.000000    0.000000   -1.393562
 ---------------------------------------------------------------------

 SCF Done:  E(UM062X) =  -149.834363083     A.U. after   10 cycles

 Unable to determine electronic state:  partially filled degenerate orbitals.
 Alpha  occ. eigenvalues --  -19.83203 -19.83200  -1.10968  -1.09774  -0.49110
 Alpha  occ. eigenvalues --   -0.48385  -0.42763  -0.41006
 Alpha virt. eigenvalues --   -0.30217  -0.28145   0.09897   0.12699   0.14588
 Alpha virt. eigenvalues --    0.14635   0.19923   0.20194   0.20650   0.30019
 Alpha virt. eigenvalues --    0.93013   0.99061   1.00250   1.02336   1.03661

  Beta  occ. eigenvalues --  -19.83203 -19.83200  -1.10968  -1.09774  -0.49110
  Beta  occ. eigenvalues --   -0.48385  -0.42763  -0.41006
  Beta virt. eigenvalues --   -0.30217  -0.28145   0.09897   0.12699   0.14588
  Beta virt. eigenvalues --    0.14635   0.19923   0.20194   0.20650   0.30019
  Beta virt. eigenvalues --    0.93013   0.99061   1.00250   1.02336   1.03661

 Mulliken charges and spin densities:
               1          2
     1  O   -0.000000   0.000000
     2  O   -0.000000   0.000000
 Sum of Mulliken charges =  -0.00000   0.00000

 Dipole moment (field-independent basis, Debye):
    X=             -0.0000    Y=             -0.0000    Z=              0.0000  Tot=              0.0000
 Quadrupole moment (field-independent basis, Debye-Ang):
   XX=            -12.0045   YY=            -10.1930   ZZ=             -9.1150
   XY=              0.0000   XZ=             -0.0000   YZ=              0.0000

 Summary of Natural Population Analysis:

                                       Natural Population
                Natural  -----------------------------------------------
    Atom  No    Charge         Core      Valence    Rydberg      Total
 -----------------------------------------------------------------------
      O    1   -0.00000      1.00000     2.99904    0.00096     4.00000
      O    2    0.00000      1.00000     2.99904    0.00096     4.00000
 =======================================================================
   * Total *    0.00000      2.00000     5.99808    0.00192     8.00000

 Normal termination of Gaussian 16 at Mon Apr 21 19:54:09 2025.
