 Gaussian 16, Revision A.03,
 Gaussian 16:  ES64L-G16RevA.03 25-Dec-2016

 ---------------------------------------------------
 #p UM062X/6-311+G** force int=superfine pop=saveNBO
 ---------------------------------------------------

 -------------------
 Title Card Required
 -------------------
 Symbolic Z-matrix:
 Charge =  0 Multiplicity = 1

                         Standard orientation:
 ---------------------------------------------------------------------
 Center     Atomic      Atomic             Coordinates (Angstroms)
 Number     Number       Type             X           Y           Z
 ---------------------------------------------------------------------
      1          6           0        0.000000    0.000000   -2.166249
      2         16           0        0.000000    0.000000    0.812343
 ---------------------------------------------------------------------

 SCF Done:  E(UM062X) =  -435.861376834     A.U. after   19 cycles

 The electronic state is 1-SG.
 Alpha  occ. eigenvalues --  -89.92836 -10.80105  -8.28723  -6.21227  -6.20096
 Alpha  occ. eigenvalues --   -6.20096  -0.73836  -0.69895  -0.34237  -0.30234
 Alpha  occ. eigenvalues --   -0.30234
 Alpha virt. eigenvalues --   -0.16601  -0.16601  -0.14377   0.03091   0.05371
 Alpha virt. eigenvalues --    0.05906   0.05906   0.08771   0.08771   0.08788
 Alpha virt. eigenvalues --    0.14531   0.36396   0.36396   0.37326   0.51424

  Beta  occ. eigenvalues --  -89.92836 -10.80105  -8.28723  -6.21227  -6.20096
  Beta  occ. eigenvalues --   -6.20096  -0.73836  -0.69895  -0.34237  -0.30234
  Beta  occ. eigenvalues --   -0.30234
  Beta virt. eigenvalues --   -0.16601  -0.16601  -0.14377   0.03091   0.05371
  Beta virt. eigenvalues --    0.05906   0.05906   0.08771   0.08771   0.08788
  Beta virt. eigenvalues --    0.14531   0.36396   0.36396   0.37326   0.51424

 Mulliken charges and spin densities:
               1          2
     1  C    0.190931  -0.000000
     2  S   -0.190931   0.000000
 Sum of Mulliken charges =  -0.00000  -0.00000

 Dipole moment (field-independent basis, Debye):
    X=              0.0000    Y=              0.0000    Z=             -2.7073  Tot=              2.7073
 Quadrupole moment (field-independent basis, Debye-Ang):
   XX=            -20.8473   YY=            -20.8473   ZZ=            -14.5149
   XY=              0.0000   XZ=              0.0000   YZ=              0.0000

 Summary of Natural Population Analysis:

                                       Natural Population
                Natural  -----------------------------------------------
    Atom  No    Charge         Core      Valence    Rydberg      Total
 -----------------------------------------------------------------------
      C    1    0.14409      1.00000     1.85538    0.00052     2.85591
      S    2   -0.14409      4.99999     3.14346    0.00064     8.14409
 =======================================================================
   * Total *   -0.00000      5.99999     4.99884    0.00117    11.00000

 Normal termination of Gaussian 16 at Mon Apr 21 19:46:47 2025.
