 Gaussian 16, Revision A.03,
 Gaussian 16:  ES64L-G16RevA.03 25-Dec-2016

 --------------------------------------------
 #p opt UM062X/6-311+G** nosymm int=superfine
 --------------------------------------------

 -------------------
 Title Card Required
 -------------------
 Symbolic Z-matrix:
 Charge = -1 Multiplicity = 2

 SCF Done:  E(UM062X) =  -53.2217706187     A.U. after   11 cycles
 SCF Done:  E(UM062X) =  -53.2233421698     A.U. after   10 cycles
 SCF Done:  E(UM062X) =  -53.2236700094     A.U. after   10 cycles
 Optimization completed.
    -- Stationary point found.

                          Input orientation:
 ---------------------------------------------------------------------
 Center     Atomic      Atomic             Coordinates (Angstroms)
 Number     Number       Type             X           Y           Z
 ---------------------------------------------------------------------
      1          5           0       -1.490672    0.000000    0.000000
      2          5           0        1.490672    0.000000    0.000000
      3          1           0        1.611356   -1.194227   -0.000011
      4          1           0       -1.611460   -0.597092    1.034227
      5          1           0        1.611609    0.597108   -1.034201
      6          1           0        1.611413    0.597079    1.034239
      7          1           0       -1.611364    1.194226    0.000002
      8          1           0       -1.611555   -0.597096   -1.034214
 ---------------------------------------------------------------------

 Alpha  occ. eigenvalues --   -6.82456  -6.82454  -0.39181  -0.36879  -0.20523
 Alpha  occ. eigenvalues --   -0.20523  -0.19218  -0.19218  -0.00503
 Alpha virt. eigenvalues --    0.15158   0.17225   0.17595   0.17595   0.18984
 Alpha virt. eigenvalues --    0.18984   0.22130   0.22753   0.22890   0.32971
 Alpha virt. eigenvalues --    0.32971   0.36507   0.36507   0.38938   0.40365

  Beta  occ. eigenvalues --   -6.82406  -6.82405  -0.36903  -0.35366  -0.20161
  Beta  occ. eigenvalues --   -0.20161  -0.19044  -0.19043
  Beta virt. eigenvalues --    0.13629   0.14731   0.16867   0.16867   0.17104
  Beta virt. eigenvalues --    0.18526   0.18526   0.23774   0.24216   0.28718
  Beta virt. eigenvalues --    0.32588   0.32589   0.36521   0.36522   0.39291

 Mulliken charges and spin densities:
               1          2
     1  B   -0.289819   0.603433
     2  B   -0.289819   0.603433
     3  H   -0.070038  -0.034456
     4  H   -0.070069  -0.034488
     5  H   -0.070077  -0.034489
     6  H   -0.070066  -0.034487
     7  H   -0.070039  -0.034456
     8  H   -0.070073  -0.034489
 Sum of Mulliken charges =  -1.00000   1.00000

 Dipole moment (field-independent basis, Debye):
    X=              0.0000    Y=             -0.0000    Z=              0.0000  Tot=              0.0000
 Quadrupole moment (field-independent basis, Debye-Ang):
   XX=            -35.8569   YY=            -24.0932   ZZ=            -24.0933
   XY=             -0.0001   XZ=              0.0000   YZ=              0.0000

 Normal termination of Gaussian 16 at Mon Apr 21 16:50:24 2025.
