 Gaussian 16, Revision A.03,
 Gaussian 16:  ES64L-G16RevA.03 25-Dec-2016

 --------------------------------------------
 #p opt UM062X/6-311+G** nosymm int=superfine
 --------------------------------------------

 -------------------
 Title Card Required
 -------------------
 Symbolic Z-matrix:
 Charge = -1 Multiplicity = 2

 SCF Done:  E(UM062X) =  -50.6558212737     A.U. after   11 cycles
 SCF Done:  E(UM062X) =  -50.6558252400     A.U. after    7 cycles
 Optimization completed.
    -- Stationary point found.

                          Input orientation:
 ---------------------------------------------------------------------
 Center     Atomic      Atomic             Coordinates (Angstroms)
 Number     Number       Type             X           Y           Z
 ---------------------------------------------------------------------
      1          5           0       -1.066404    0.000000    0.000000
      2          5           0        1.066404    0.000000    0.000000
      3          1           0       -2.248100   -0.000903    0.000000
      4          1           0        2.248100    0.000903   -0.000000
 ---------------------------------------------------------------------

 Alpha  occ. eigenvalues --   -6.90795  -6.90779  -0.36672  -0.34015  -0.17669
 Alpha  occ. eigenvalues --   -0.01833  -0.00568
 Alpha virt. eigenvalues --    0.13877   0.15335   0.15402   0.15742   0.20261
 Alpha virt. eigenvalues --    0.21309   0.21360   0.21548   0.23171   0.23552
 Alpha virt. eigenvalues --    0.26611   0.38007   0.42141   0.56112   0.58967

  Beta  occ. eigenvalues --   -6.90750  -6.90739  -0.34892  -0.33099  -0.16484
  Beta  occ. eigenvalues --    0.01159
  Beta virt. eigenvalues --    0.10607   0.13958   0.14225   0.15277   0.16409
  Beta virt. eigenvalues --    0.19123   0.20700   0.20801   0.21110   0.24736
  Beta virt. eigenvalues --    0.25837   0.25997   0.38230   0.42411   0.55757

 Mulliken charges and spin densities:
               1          2
     1  B   -0.512615   0.526038
     2  B   -0.512614   0.526037
     3  H    0.012614  -0.026038
     4  H    0.012614  -0.026038
 Sum of Mulliken charges =  -1.00000   1.00000

 Dipole moment (field-independent basis, Debye):
    X=              0.0000    Y=             -0.0000    Z=              0.0000  Tot=              0.0000
 Quadrupole moment (field-independent basis, Debye-Ang):
   XX=            -23.4915   YY=            -30.3936   ZZ=            -23.2458
   XY=              0.0071   XZ=             -0.0000   YZ=              0.0003

 Normal termination of Gaussian 16 at Mon Apr 21 17:30:38 2025.
