 Gaussian 16, Revision A.03,
 Gaussian 16:  ES64L-G16RevA.03 25-Dec-2016

 --------------------------------------------
 #p opt UM062X/6-311+G** nosymm int=superfine
 --------------------------------------------

 -------------------
 Title Card Required
 -------------------
 Symbolic Z-matrix:
 Charge =  1 Multiplicity = 2

 SCF Done:  E(UM062X) =  -78.1751607586     A.U. after    9 cycles
 SCF Done:  E(UM062X) =  -78.1770803221     A.U. after    8 cycles
 SCF Done:  E(UM062X) =  -78.1771851151     A.U. after    7 cycles
 Optimization completed.
    -- Stationary point found.

                          Input orientation:
 ---------------------------------------------------------------------
 Center     Atomic      Atomic             Coordinates (Angstroms)
 Number     Number       Type             X           Y           Z
 ---------------------------------------------------------------------
      1          6           0       -0.664478    0.000000    0.000000
      2          6           0        0.664478    0.000000    0.000000
      3          1           0       -1.233104   -0.927503    0.000000
      4          1           0       -1.233221    0.927347    0.000000
      5          1           0        1.233104    0.927503   -0.000000
      6          1           0        1.233221   -0.927347   -0.000000
 ---------------------------------------------------------------------

 Alpha  occ. eigenvalues --  -10.88984 -10.88863  -1.21316  -0.97304  -0.85859
 Alpha  occ. eigenvalues --   -0.81163  -0.71712  -0.68995
 Alpha virt. eigenvalues --   -0.27858  -0.14757  -0.12926  -0.12502  -0.10011
 Alpha virt. eigenvalues --   -0.07880  -0.06757  -0.04901  -0.04376  -0.02790
 Alpha virt. eigenvalues --   -0.00316   0.02613   0.10794   0.11192   0.20901

  Beta  occ. eigenvalues --  -10.88745 -10.88639  -1.17127  -0.95415  -0.84628
  Beta  occ. eigenvalues --   -0.80247  -0.71413
  Beta virt. eigenvalues --   -0.43552  -0.21140  -0.16483  -0.12944  -0.12479
  Beta virt. eigenvalues --   -0.10599  -0.08788  -0.06814  -0.04805  -0.03426
  Beta virt. eigenvalues --   -0.02344  -0.00594   0.02732   0.11648   0.11854

 Mulliken charges and spin densities:
               1          2
     1  C   -0.048680   0.537197
     2  C   -0.048680   0.537197
     3  H    0.274336  -0.018600
     4  H    0.274344  -0.018597
     5  H    0.274336  -0.018600
     6  H    0.274344  -0.018597
 Sum of Mulliken charges =   1.00000   1.00000

 Dipole moment (field-independent basis, Debye):
    X=             -0.0000    Y=              0.0000    Z=              0.0000  Tot=              0.0000
 Quadrupole moment (field-independent basis, Debye-Ang):
   XX=             -5.8941   YY=             -8.4833   ZZ=            -11.3089
   XY=             -0.0001   XZ=             -0.0000   YZ=             -0.0000

 Normal termination of Gaussian 16 at Tue Nov 19 10:58:12 2024.
