 Gaussian 16, Revision A.03,
 Gaussian 16:  ES64L-G16RevA.03 25-Dec-2016

 --------------------------------------------
 #p opt UM062X/6-311+G** nosymm int=superfine
 --------------------------------------------

 -------------------
 Title Card Required
 -------------------
 Symbolic Z-matrix:
 Charge =  1 Multiplicity = 2

 SCF Done:  E(UM062X) =  -78.1502213446     A.U. after    9 cycles
 SCF Done:  E(UM062X) =  -78.1569927272     A.U. after    8 cycles
 SCF Done:  E(UM062X) =  -78.1573978937     A.U. after    8 cycles
 Optimization completed.
    -- Stationary point found.

                          Input orientation:
 ---------------------------------------------------------------------
 Center     Atomic      Atomic             Coordinates (Angstroms)
 Number     Number       Type             X           Y           Z
 ---------------------------------------------------------------------
      1          6           0       -0.629134    0.000000    0.000000
      2          6           0        0.629134    0.000000    0.000000
      3          1           0       -1.211843   -0.920391    0.000000
      4          1           0       -1.211907    0.920275    0.000000
      5          1           0        1.211843    0.920391   -0.000000
      6          1           0        1.211907   -0.920275   -0.000000
 ---------------------------------------------------------------------

 Alpha  occ. eigenvalues --  -10.88471 -10.88284  -1.23917  -0.96946  -0.86941
 Alpha  occ. eigenvalues --   -0.82535  -0.71151  -0.70629
 Alpha virt. eigenvalues --   -0.26374  -0.14814  -0.13402  -0.12465  -0.10279
 Alpha virt. eigenvalues --   -0.07970  -0.06641  -0.04947  -0.04279  -0.03055
 Alpha virt. eigenvalues --   -0.00151   0.02959   0.11577   0.13146   0.21395

  Beta  occ. eigenvalues --  -10.88222 -10.88050  -1.19527  -0.95083  -0.85596
  Beta  occ. eigenvalues --   -0.81626  -0.70352
  Beta virt. eigenvalues --   -0.44891  -0.20015  -0.16486  -0.13321  -0.12440
  Beta virt. eigenvalues --   -0.10930  -0.08910  -0.06692  -0.04791  -0.03160
  Beta virt. eigenvalues --   -0.02654  -0.00412   0.03093   0.12033   0.13831

 Mulliken charges and spin densities:
               1          2
     1  C   -0.045560   0.536747
     2  C   -0.045560   0.536747
     3  H    0.272779  -0.018375
     4  H    0.272782  -0.018372
     5  H    0.272779  -0.018375
     6  H    0.272782  -0.018372
 Sum of Mulliken charges =   1.00000   1.00000

 Dipole moment (field-independent basis, Debye):
    X=             -0.0000    Y=             -0.0000    Z=              0.0000  Tot=              0.0000
 Quadrupole moment (field-independent basis, Debye-Ang):
   XX=             -6.1508   YY=             -8.5024   ZZ=            -11.1451
   XY=              0.0000   XZ=             -0.0000   YZ=             -0.0000

 Normal termination of Gaussian 16 at Tue Nov 19 10:56:24 2024.
