 Gaussian 16, Revision A.03,
 Gaussian 16:  ES64L-G16RevA.03 25-Dec-2016

 ---------------------------------------------------
 #p UM062X/6-311+G** force int=superfine pop=saveNBO
 ---------------------------------------------------

 -------------------
 Title Card Required
 -------------------
 Symbolic Z-matrix:
 Charge =  0 Multiplicity = 1

                         Standard orientation:
 ---------------------------------------------------------------------
 Center     Atomic      Atomic             Coordinates (Angstroms)
 Number     Number       Type             X           Y           Z
 ---------------------------------------------------------------------
      1          6           0        0.000000    0.000000   -0.926951
      2          8           0        0.000000    0.000000    0.695213
 ---------------------------------------------------------------------

 SCF Done:  E(UM062X) =  -113.084040105     A.U. after   12 cycles

 The electronic state is 1-SG.
 Alpha  occ. eigenvalues --  -19.73017 -10.79973  -1.08438  -0.68661  -0.45157
 Alpha  occ. eigenvalues --   -0.42786  -0.42786
 Alpha virt. eigenvalues --   -0.11859  -0.11859   0.02952   0.03670   0.06683
 Alpha virt. eigenvalues --    0.06683   0.11487   0.19846   0.22521   0.22521
 Alpha virt. eigenvalues --    0.31503   0.53652   0.53652   0.53856   0.72632

  Beta  occ. eigenvalues --  -19.73017 -10.79973  -1.08438  -0.68661  -0.45157
  Beta  occ. eigenvalues --   -0.42786  -0.42786
  Beta virt. eigenvalues --   -0.11859  -0.11859   0.02952   0.03670   0.06683
  Beta virt. eigenvalues --    0.06683   0.11487   0.19846   0.22521   0.22521
  Beta virt. eigenvalues --    0.31503   0.53652   0.53652   0.53856   0.72632

 Mulliken charges and spin densities:
               1          2
     1  C    0.270555   0.000000
     2  O   -0.270555   0.000000
 Sum of Mulliken charges =  -0.00000   0.00000

 Dipole moment (field-independent basis, Debye):
    X=              0.0000    Y=              0.0000    Z=             -2.0907  Tot=              2.0907
 Quadrupole moment (field-independent basis, Debye-Ang):
   XX=            -11.2086   YY=            -11.2086   ZZ=            -11.7866
   XY=              0.0000   XZ=              0.0000   YZ=              0.0000

 Summary of Natural Population Analysis:

                                       Natural Population
                Natural  -----------------------------------------------
    Atom  No    Charge         Core      Valence    Rydberg      Total
 -----------------------------------------------------------------------
      C    1    0.31563      0.99998     1.67296    0.01143     2.68437
      O    2   -0.31563      0.99998     3.31352    0.00212     4.31563
 =======================================================================
   * Total *    0.00000      1.99996     4.98648    0.01355     7.00000

 Normal termination of Gaussian 16 at Mon Apr 21 19:30:29 2025.
