 Gaussian 16, Revision A.03,
 Gaussian 16:  ES64L-G16RevA.03 25-Dec-2016

 --------------------------------------------
 #p opt UM062X/6-311+G** nosymm int=superfine
 --------------------------------------------

 -------------------
 Title Card Required
 -------------------
 Symbolic Z-matrix:
 Charge =  0 Multiplicity = 1

 SCF Done:  E(UM062X) =  -115.445141097     A.U. after   27 cycles
 SCF Done:  E(UM062X) =  -115.461479823     A.U. after   13 cycles
 SCF Done:  E(UM062X) =  -115.471600946     A.U. after   16 cycles
 SCF Done:  E(UM062X) =  -115.471742043     A.U. after   10 cycles
 SCF Done:  E(UM062X) =  -115.471820575     A.U. after   11 cycles
 SCF Done:  E(UM062X) =  -115.471958876     A.U. after   18 cycles
 SCF Done:  E(UM062X) =  -115.471992948     A.U. after   10 cycles
 SCF Done:  E(UM062X) =  -115.472002368     A.U. after   11 cycles
 SCF Done:  E(UM062X) =  -115.472002703     A.U. after    9 cycles
 Optimization completed.
    -- Stationary point found.

                          Input orientation:
 ---------------------------------------------------------------------
 Center     Atomic      Atomic             Coordinates (Angstroms)
 Number     Number       Type             X           Y           Z
 ---------------------------------------------------------------------
      1          6           0       -1.832203    0.000000    0.000000
      2          8           0        1.832203    0.000000    0.000000
      3          1           0        1.881116   -0.964536    0.000591
      4          1           0       -1.899580   -0.534202    0.937911
      5          1           0       -1.731756    1.076855   -0.000656
      6          1           0       -1.899502   -0.535348   -0.937264
 ---------------------------------------------------------------------

 Alpha  occ. eigenvalues --  -19.58367 -10.67198  -1.00802  -0.85030  -0.57132
 Alpha  occ. eigenvalues --   -0.56937  -0.45339  -0.32298  -0.27615
 Alpha virt. eigenvalues --   -0.17304   0.00328   0.03650   0.03914   0.06815
 Alpha virt. eigenvalues --    0.13234   0.14629   0.14795   0.19279   0.22746
 Alpha virt. eigenvalues --    0.23056   0.24953   0.28125   0.38963   0.39171

  Beta  occ. eigenvalues --  -19.58367 -10.67198  -1.00802  -0.85030  -0.57132
  Beta  occ. eigenvalues --   -0.56937  -0.45339  -0.32298  -0.27615
  Beta virt. eigenvalues --   -0.17304   0.00328   0.03650   0.03914   0.06815
  Beta virt. eigenvalues --    0.13234   0.14629   0.14795   0.19279   0.22746
  Beta virt. eigenvalues --    0.23056   0.24953   0.28125   0.38963   0.39171

 Mulliken charges and spin densities:
               1          2
     1  C   -0.292352   0.000001
     2  O   -0.563831  -0.000001
     3  H    0.212093  -0.000000
     4  H    0.210689  -0.000000
     5  H    0.222710  -0.000000
     6  H    0.210691  -0.000000
 Sum of Mulliken charges =  -0.00000  -0.00000

 Dipole moment (field-independent basis, Debye):
    X=             -6.3040    Y=             -1.5809    Z=              0.0010  Tot=              6.4992
 Quadrupole moment (field-independent basis, Debye-Ang):
   XX=            -13.2209   YY=            -11.4980   ZZ=            -13.9151
   XY=             -3.0703   XZ=              0.0018   YZ=             -0.0015

 Normal termination of Gaussian 16 at Mon Apr 21 18:45:41 2025.
