 Gaussian 16, Revision A.03,
 Gaussian 16:  ES64L-G16RevA.03 25-Dec-2016

 --------------------------------------------
 #p opt UM062X/6-311+G** nosymm int=superfine
 --------------------------------------------

 -------------------
 Title Card Required
 -------------------
 Symbolic Z-matrix:
 Charge =  0 Multiplicity = 1

 SCF Done:  E(UM062X) =  -76.9323908812     A.U. after   14 cycles
 SCF Done:  E(UM062X) =  -76.9336168070     A.U. after   13 cycles
 SCF Done:  E(UM062X) =  -76.9341964056     A.U. after   13 cycles
 SCF Done:  E(UM062X) =  -76.9342848339     A.U. after   12 cycles
 SCF Done:  E(UM062X) =  -76.9342849352     A.U. after   11 cycles
 Optimization completed.
    -- Stationary point found.

                          Input orientation:
 ---------------------------------------------------------------------
 Center     Atomic      Atomic             Coordinates (Angstroms)
 Number     Number       Type             X           Y           Z
 ---------------------------------------------------------------------
      1          6           0       -1.382625    0.000000    0.000000
      2          6           0        1.382625    0.000000    0.000000
      3          1           0       -1.317025    0.098780    1.111195
      4          1           0        1.317153    0.962810   -0.563505
 ---------------------------------------------------------------------

 Alpha  occ. eigenvalues --  -10.67047 -10.67043  -0.73533  -0.70934  -0.38637
 Alpha  occ. eigenvalues --   -0.38612  -0.26885
 Alpha virt. eigenvalues --   -0.10081  -0.08913  -0.07324   0.02991   0.05507
 Alpha virt. eigenvalues --    0.07415   0.07576   0.09842   0.09985   0.10580
 Alpha virt. eigenvalues --    0.14990   0.17522   0.19895   0.44485   0.46417

  Beta  occ. eigenvalues --  -10.67047 -10.67043  -0.73533  -0.70934  -0.38637
  Beta  occ. eigenvalues --   -0.38612  -0.26885
  Beta virt. eigenvalues --   -0.10081  -0.08913  -0.07324   0.02991   0.05507
  Beta virt. eigenvalues --    0.07415   0.07576   0.09842   0.09985   0.10580
  Beta virt. eigenvalues --    0.14990   0.17522   0.19895   0.44485   0.46417

 Mulliken charges and spin densities:
               1          2
     1  C   -0.138319  -0.000001
     2  C   -0.138346   0.000001
     3  H    0.138333   0.000000
     4  H    0.138332  -0.000000
 Sum of Mulliken charges =  -0.00000   0.00000

 Dipole moment (field-independent basis, Debye):
    X=              0.0001    Y=              1.5124    Z=              0.7803  Tot=              1.7019
 Quadrupole moment (field-independent basis, Debye-Ang):
   XX=            -16.9956   YY=            -12.8121   ZZ=            -13.4864
   XY=              1.7929   XZ=             -3.4750   YZ=              0.4741

 Normal termination of Gaussian 16 at Tue Dec  3 21:53:01 2024.
