 Gaussian 16, Revision A.03,
 Gaussian 16:  ES64L-G16RevA.03 25-Dec-2016

 --------------------------------------------
 #p opt UM062X/6-311+G** nosymm int=superfine
 --------------------------------------------

 -------------------
 Title Card Required
 -------------------
 Symbolic Z-matrix:
 Charge =  0 Multiplicity = 1

 SCF Done:  E(UM062X) =  -83.1197199427     A.U. after   10 cycles
 SCF Done:  E(UM062X) =  -83.1357873474     A.U. after    9 cycles
 SCF Done:  E(UM062X) =  -83.1395489476     A.U. after    8 cycles
 SCF Done:  E(UM062X) =  -83.1395802714     A.U. after    7 cycles
 Optimization completed.
    -- Stationary point found.

                          Input orientation:
 ---------------------------------------------------------------------
 Center     Atomic      Atomic             Coordinates (Angstroms)
 Number     Number       Type             X           Y           Z
 ---------------------------------------------------------------------
      1          5           0       -2.202429    0.000000    0.000000
      2          7           0        2.202429    0.000000    0.000000
      3          1           0        2.567022   -0.945070    0.000002
      4          1           0       -2.210361   -0.593879    1.028599
      5          1           0        2.566915    0.472586   -0.818477
      6          1           0        2.566901    0.472584    0.818484
      7          1           0       -2.210356    1.187731    0.000014
      8          1           0       -2.210378   -0.593859   -1.028611
 ---------------------------------------------------------------------

 Alpha  occ. eigenvalues --  -14.72663  -7.04551  -0.95968  -0.57824  -0.53799
 Alpha  occ. eigenvalues --   -0.53799  -0.40223  -0.40223  -0.33999
 Alpha virt. eigenvalues --   -0.02504   0.02714   0.04726   0.04726   0.04801
 Alpha virt. eigenvalues --    0.08554   0.10553   0.10553   0.16541   0.18080
 Alpha virt. eigenvalues --    0.18080   0.18886   0.18887   0.21617   0.27438

  Beta  occ. eigenvalues --  -14.72663  -7.04551  -0.95968  -0.57824  -0.53799
  Beta  occ. eigenvalues --   -0.53799  -0.40223  -0.40223  -0.33999
  Beta virt. eigenvalues --   -0.02504   0.02714   0.04726   0.04726   0.04801
  Beta virt. eigenvalues --    0.08554   0.10553   0.10553   0.16541   0.18080
  Beta virt. eigenvalues --    0.18080   0.18886   0.18887   0.21617   0.27438

 Mulliken charges and spin densities:
               1          2
     1  B    0.024848   0.000000
     2  N   -0.730919   0.000000
     3  H    0.244149  -0.000000
     4  H   -0.008793  -0.000000
     5  H    0.244149  -0.000000
     6  H    0.244149   0.000000
     7  H   -0.008791   0.000000
     8  H   -0.008793   0.000000
 Sum of Mulliken charges =  -0.00000  -0.00000

 Dipole moment (field-independent basis, Debye):
    X=              1.8670    Y=              0.0002    Z=              0.0000  Tot=              1.8670
 Quadrupole moment (field-independent basis, Debye-Ang):
   XX=             -9.0307   YY=            -15.6145   ZZ=            -15.6145
   XY=              0.0001   XZ=             -0.0000   YZ=              0.0000

 Normal termination of Gaussian 16 at Mon Apr 21 17:36:18 2025.
