 Gaussian 16, Revision A.03,
 Gaussian 16:  ES64L-G16RevA.03 25-Dec-2016

 --------------------------------------------
 #p opt UM062X/6-311+G** nosymm int=superfine
 --------------------------------------------

 -------------------
 Title Card Required
 -------------------
 Symbolic Z-matrix:
 Charge =  1 Multiplicity = 2

 SCF Done:  E(UM062X) =  -76.4904185548     A.U. after   14 cycles
 SCF Done:  E(UM062X) =  -76.4907451023     A.U. after   13 cycles
 SCF Done:  E(UM062X) =  -76.4907462164     A.U. after    7 cycles
 Optimization completed.
    -- Stationary point found.

                          Input orientation:
 ---------------------------------------------------------------------
 Center     Atomic      Atomic             Coordinates (Angstroms)
 Number     Number       Type             X           Y           Z
 ---------------------------------------------------------------------
      1          6           0       -1.132160    0.000000    0.000000
      2          6           0        1.132160    0.000000    0.000000
      3          1           0       -2.250316    0.000000    0.000000
      4          1           0        2.250316   -0.000000   -0.000000
 ---------------------------------------------------------------------

 Alpha  occ. eigenvalues --  -11.01523 -11.01509  -1.03756  -0.99907  -0.75153
 Alpha  occ. eigenvalues --   -0.57351  -0.55423
 Alpha virt. eigenvalues --   -0.43915  -0.41015  -0.39071  -0.13942  -0.12271
 Alpha virt. eigenvalues --   -0.09093  -0.08334  -0.08132  -0.05337  -0.05090
 Alpha virt. eigenvalues --   -0.01067   0.01750   0.05176   0.24109   0.29117

  Beta  occ. eigenvalues --  -11.01229 -11.01220  -1.00834  -0.97857  -0.73778
  Beta  occ. eigenvalues --   -0.53660
  Beta virt. eigenvalues --   -0.41830  -0.37341  -0.36792  -0.31622  -0.14673
  Beta virt. eigenvalues --   -0.12534  -0.09885  -0.08609  -0.08488  -0.05414
  Beta virt. eigenvalues --   -0.05256  -0.01957   0.01823   0.05017   0.23671

 Mulliken charges and spin densities:
               1          2
     1  C    0.108477   0.526306
     2  C    0.108476   0.526308
     3  H    0.391524  -0.026308
     4  H    0.391523  -0.026307
 Sum of Mulliken charges =   1.00000   1.00000

 Dipole moment (field-independent basis, Debye):
    X=             -0.0000    Y=             -0.0000    Z=              0.0000  Tot=              0.0000
 Quadrupole moment (field-independent basis, Debye-Ang):
   XX=              8.7682   YY=            -13.6769   ZZ=            -11.4779
   XY=             -0.0000   XZ=             -0.0000   YZ=              0.1978

 Normal termination of Gaussian 16 at Tue Dec  3 11:23:21 2024.
