 Gaussian 16, Revision A.03,
 Gaussian 16:  ES64L-G16RevA.03 25-Dec-2016

 ---------------------------------------------------
 #p UM062X/6-311+G** force int=superfine pop=saveNBO
 ---------------------------------------------------

 -------------------
 Title Card Required
 -------------------
 Symbolic Z-matrix:
 Charge =  0 Multiplicity = 1

                         Standard orientation:
 ---------------------------------------------------------------------
 Center     Atomic      Atomic             Coordinates (Angstroms)
 Number     Number       Type             X           Y           Z
 ---------------------------------------------------------------------
      1         16           0        0.000000    0.000000    1.600200
      2         16           0        0.000000    0.000000   -1.600200
 ---------------------------------------------------------------------

 SCF Done:  E(UM062X) =  -796.101827149     A.U. after    9 cycles

 Unable to determine electronic state:  partially filled degenerate orbitals.
 Alpha  occ. eigenvalues --  -89.99298 -89.99298  -8.34985  -8.34985  -6.27019
 Alpha  occ. eigenvalues --   -6.27019  -6.27006  -6.27006  -6.26166  -6.26166
 Alpha  occ. eigenvalues --   -0.79224  -0.76800  -0.35905  -0.35539  -0.33895
 Alpha  occ. eigenvalues --   -0.32616
 Alpha virt. eigenvalues --   -0.22507  -0.18966   0.03095   0.03721   0.04931
 Alpha virt. eigenvalues --    0.05436   0.07227   0.07523   0.07687   0.13331
 Alpha virt. eigenvalues --    0.31738   0.32075   0.32655   0.36380   0.37260

  Beta  occ. eigenvalues --  -89.99298 -89.99298  -8.34985  -8.34985  -6.27019
  Beta  occ. eigenvalues --   -6.27019  -6.27006  -6.27006  -6.26166  -6.26166
  Beta  occ. eigenvalues --   -0.79224  -0.76800  -0.35905  -0.35539  -0.33895
  Beta  occ. eigenvalues --   -0.32616
  Beta virt. eigenvalues --   -0.22507  -0.18966   0.03095   0.03721   0.04931
  Beta virt. eigenvalues --    0.05436   0.07227   0.07523   0.07687   0.13331
  Beta virt. eigenvalues --    0.31738   0.32075   0.32655   0.36380   0.37260

 Mulliken charges and spin densities:
               1          2
     1  S    0.000000   0.000000
     2  S    0.000000   0.000000
 Sum of Mulliken charges =   0.00000   0.00000

 Dipole moment (field-independent basis, Debye):
    X=              0.0000    Y=             -0.0000    Z=             -0.0000  Tot=              0.0000
 Quadrupole moment (field-independent basis, Debye-Ang):
   XX=            -30.3019   YY=            -25.3911   ZZ=            -22.6262
   XY=              0.0000   XZ=             -0.0000   YZ=              0.0000

 Summary of Natural Population Analysis:

                                       Natural Population
                Natural  -----------------------------------------------
    Atom  No    Charge         Core      Valence    Rydberg      Total
 -----------------------------------------------------------------------
      S    1    0.00000      4.99999     2.99901    0.00099     8.00000
      S    2    0.00000      4.99999     2.99901    0.00099     8.00000
 =======================================================================
   * Total *    0.00000      9.99999     5.99802    0.00199    16.00000

 Normal termination of Gaussian 16 at Mon Apr 21 20:09:10 2025.
