 Gaussian 16, Revision A.03,
 Gaussian 16:  ES64L-G16RevA.03 25-Dec-2016

 --------------------------------------------
 #p opt UM062X/6-311+G** nosymm int=superfine
 --------------------------------------------

 -------------------
 Title Card Required
 -------------------
 Symbolic Z-matrix:
 Charge =  0 Multiplicity = 1

 SCF Done:  E(UM062X) =  -437.156843632     A.U. after   16 cycles
 SCF Done:  E(UM062X) =  -437.159658066     A.U. after   16 cycles
 SCF Done:  E(UM062X) =  -437.160590035     A.U. after   17 cycles
 SCF Done:  E(UM062X) =  -437.160591266     A.U. after   16 cycles
 Optimization completed.
    -- Stationary point found.

                          Input orientation:
 ---------------------------------------------------------------------
 Center     Atomic      Atomic             Coordinates (Angstroms)
 Number     Number       Type             X           Y           Z
 ---------------------------------------------------------------------
      1          6           0       -2.152140    0.000000    0.000000
      2         16           0        2.152140    0.000000    0.000000
      3          1           0       -2.842023   -0.866033    0.000009
      4          1           0       -2.843010    0.865244   -0.000115
 ---------------------------------------------------------------------

 Alpha  occ. eigenvalues --  -89.94582 -10.62217  -8.30633  -6.23424  -6.21835
 Alpha  occ. eigenvalues --   -6.21834  -0.76866  -0.74736  -0.48964  -0.32751
 Alpha  occ. eigenvalues --   -0.32048  -0.32041
 Alpha virt. eigenvalues --   -0.17043  -0.09386   0.01549   0.04555   0.05406
 Alpha virt. eigenvalues --    0.06379   0.07946   0.08544   0.08883   0.13865
 Alpha virt. eigenvalues --    0.17410   0.18765   0.35207   0.36593   0.36594

  Beta  occ. eigenvalues --  -89.94582 -10.62217  -8.30633  -6.23424  -6.21835
  Beta  occ. eigenvalues --   -6.21834  -0.76866  -0.74736  -0.48964  -0.32751
  Beta  occ. eigenvalues --   -0.32048  -0.32041
  Beta virt. eigenvalues --   -0.17043  -0.09386   0.01549   0.04555   0.05406
  Beta virt. eigenvalues --    0.06379   0.07946   0.08544   0.08883   0.13865
  Beta virt. eigenvalues --    0.17410   0.18765   0.35207   0.36593   0.36594

 Mulliken charges and spin densities:
               1          2
     1  C   -0.277375  -0.000000
     2  S    0.001149  -0.000000
     3  H    0.138109  -0.000000
     4  H    0.138117   0.000000
 Sum of Mulliken charges =   0.00000   0.00000

 Dipole moment (field-independent basis, Debye):
    X=             -2.4540    Y=             -0.0012    Z=             -0.0002  Tot=              2.4540
 Quadrupole moment (field-independent basis, Debye-Ang):
   XX=             -9.7929   YY=            -22.3797   ZZ=            -21.6988
   XY=              0.0005   XZ=             -0.0000   YZ=              0.0000

 Normal termination of Gaussian 16 at Mon Apr 21 19:46:18 2025.
