 Gaussian 16, Revision A.03,
 Gaussian 16:  ES64L-G16RevA.03 25-Dec-2016

 --------------------------------------------
 #p opt UM062X/6-311+G** nosymm int=superfine
 --------------------------------------------

 -------------------
 Title Card Required
 -------------------
 Symbolic Z-matrix:
 Charge =  1 Multiplicity = 2

 SCF Done:  E(UM062X) =  -79.3330928975     A.U. after   10 cycles
 SCF Done:  E(UM062X) =  -79.3333042409     A.U. after    9 cycles
 Optimization completed.
    -- Stationary point found.

                          Input orientation:
 ---------------------------------------------------------------------
 Center     Atomic      Atomic             Coordinates (Angstroms)
 Number     Number       Type             X           Y           Z
 ---------------------------------------------------------------------
      1          6           0       -1.612139    0.000000    0.000000
      2          6           0        1.612139    0.000000    0.000000
      3          1           0        1.656632   -0.937546    0.542631
      4          1           0       -1.655224   -0.938657   -0.540823
      5          1           0        1.656036    0.938747    0.540602
      6          1           0        1.655266   -0.001162   -1.083308
      7          1           0       -1.656666    0.937644   -0.542462
      8          1           0       -1.656017    0.000939    1.083278
 ---------------------------------------------------------------------

 Alpha  occ. eigenvalues --  -10.84789 -10.84787  -1.03589  -1.02485  -0.74366
 Alpha  occ. eigenvalues --   -0.74365  -0.73858  -0.73858  -0.51409
 Alpha virt. eigenvalues --   -0.36096  -0.13753  -0.10193  -0.10158  -0.10158
 Alpha virt. eigenvalues --   -0.06242  -0.06242  -0.05008  -0.03277  -0.01684
 Alpha virt. eigenvalues --   -0.01681   0.01290   0.01293   0.04508   0.07792

  Beta  occ. eigenvalues --  -10.84588 -10.84588  -1.00797  -1.00060  -0.73845
  Beta  occ. eigenvalues --   -0.73844  -0.73348  -0.73348
  Beta virt. eigenvalues --   -0.32613  -0.25951  -0.15476  -0.11139  -0.11138
  Beta virt. eigenvalues --   -0.10031  -0.06383  -0.06383  -0.05277  -0.02381
  Beta virt. eigenvalues --   -0.01999  -0.01997   0.01591   0.01593   0.05397

 Mulliken charges and spin densities:
               1          2
     1  C   -0.269800   0.564726
     2  C   -0.269802   0.564728
     3  H    0.256625  -0.021571
     4  H    0.256578  -0.021575
     5  H    0.256604  -0.021574
     6  H    0.256571  -0.021582
     7  H    0.256627  -0.021571
     8  H    0.256597  -0.021581
 Sum of Mulliken charges =   1.00000   1.00000

 Dipole moment (field-independent basis, Debye):
    X=             -0.0000    Y=             -0.0000    Z=             -0.0001  Tot=              0.0001
 Quadrupole moment (field-independent basis, Debye-Ang):
   XX=              1.3922   YY=            -11.0545   ZZ=            -11.0545
   XY=             -0.0015   XZ=              0.0009   YZ=              0.0000

 Normal termination of Gaussian 16 at Wed Nov 13 12:37:32 2024.
