 Gaussian 16, Revision A.03,
 Gaussian 16:  ES64L-G16RevA.03 25-Dec-2016

 --------------------------------------------
 #p opt UM062X/6-311+G** nosymm int=superfine
 --------------------------------------------

 -------------------
 Title Card Required
 -------------------
 Symbolic Z-matrix:
 Charge =  1 Multiplicity = 2

 SCF Done:  E(UM062X) =  -76.7565442201     A.U. after   10 cycles
 SCF Done:  E(UM062X) =  -76.7892951911     A.U. after   10 cycles
 SCF Done:  E(UM062X) =  -76.8081742441     A.U. after   11 cycles
 SCF Done:  E(UM062X) =  -76.8082510898     A.U. after    8 cycles
 Optimization completed.
    -- Stationary point found.

                          Input orientation:
 ---------------------------------------------------------------------
 Center     Atomic      Atomic             Coordinates (Angstroms)
 Number     Number       Type             X           Y           Z
 ---------------------------------------------------------------------
      1          6           0       -0.770465    0.000000    0.000000
      2          6           0        0.770465    0.000000    0.000000
      3          1           0       -1.861170   -0.000021    0.000021
      4          1           0        1.861165   -0.000021    0.000021
 ---------------------------------------------------------------------

 Alpha  occ. eigenvalues --  -10.98541 -10.98487  -1.13480  -0.98682  -0.86440
 Alpha  occ. eigenvalues --   -0.66065  -0.63820
 Alpha virt. eigenvalues --   -0.33941  -0.31931  -0.22333  -0.14288  -0.10923
 Alpha virt. eigenvalues --   -0.10377  -0.09425  -0.09183  -0.05224  -0.04880
 Alpha virt. eigenvalues --    0.01853   0.04141   0.09630   0.21372   0.31308

  Beta  occ. eigenvalues --  -10.98301 -10.98261  -1.09300  -0.96982  -0.85754
  Beta  occ. eigenvalues --   -0.61676
  Beta virt. eigenvalues --   -0.42282  -0.30228  -0.26250  -0.20286  -0.15399
  Beta virt. eigenvalues --   -0.11263  -0.10573  -0.09776  -0.09572  -0.05041
  Beta virt. eigenvalues --   -0.04666   0.01146   0.04268   0.10106   0.22250

 Mulliken charges and spin densities:
               1          2
     1  C    0.151647   0.520818
     2  C    0.151646   0.520818
     3  H    0.348355  -0.020818
     4  H    0.348353  -0.020818
 Sum of Mulliken charges =   1.00000   1.00000

 Dipole moment (field-independent basis, Debye):
    X=             -0.0000    Y=             -0.0000    Z=              0.0000  Tot=              0.0001
 Quadrupole moment (field-independent basis, Debye-Ang):
   XX=              1.8120   YY=            -11.2152   ZZ=            -11.5257
   XY=             -0.0000   XZ=              0.0000   YZ=             -0.9926

 Normal termination of Gaussian 16 at Tue Nov 19 13:10:06 2024.
