 Gaussian 16, Revision A.03,
 Gaussian 16:  ES64L-G16RevA.03 25-Dec-2016

 --------------------------------------------
 #p opt UM062X/6-311+G** nosymm int=superfine
 --------------------------------------------

 -------------------
 Title Card Required
 -------------------
 Symbolic Z-matrix:
 Charge =  0 Multiplicity = 1

 SCF Done:  E(UM062X) =  -110.210643418     A.U. after   13 cycles
 SCF Done:  E(UM062X) =  -110.215666876     A.U. after   11 cycles
 SCF Done:  E(UM062X) =  -110.221292765     A.U. after   14 cycles
 SCF Done:  E(UM062X) =  -110.221475346     A.U. after   15 cycles
 SCF Done:  E(UM062X) =  -110.221475459     A.U. after   10 cycles
 Optimization completed.
    -- Stationary point found.

                          Input orientation:
 ---------------------------------------------------------------------
 Center     Atomic      Atomic             Coordinates (Angstroms)
 Number     Number       Type             X           Y           Z
 ---------------------------------------------------------------------
      1          7           0       -1.490428    0.000000    0.000000
      2          7           0        1.490428    0.000000    0.000000
      3          1           0       -1.300979   -1.021194   -0.000000
      4          1           0        1.300979    1.021194   -0.000000
 ---------------------------------------------------------------------

 Alpha  occ. eigenvalues --  -14.88761 -14.88757  -0.93167  -0.91829  -0.49337
 Alpha  occ. eigenvalues --   -0.48539  -0.33078  -0.30939
 Alpha virt. eigenvalues --   -0.20558  -0.18228   0.05448   0.07303   0.10691
 Alpha virt. eigenvalues --    0.11747   0.13341   0.14815   0.15703   0.18426
 Alpha virt. eigenvalues --    0.19658   0.23296   0.51899   0.55257   0.70131

  Beta  occ. eigenvalues --  -14.88761 -14.88757  -0.93167  -0.91829  -0.49337
  Beta  occ. eigenvalues --   -0.48539  -0.33078  -0.30939
  Beta virt. eigenvalues --   -0.20558  -0.18228   0.05448   0.07303   0.10691
  Beta virt. eigenvalues --    0.11747   0.13341   0.14815   0.15703   0.18426
  Beta virt. eigenvalues --    0.19658   0.23296   0.51899   0.55257   0.70131

 Mulliken charges and spin densities:
               1          2
     1  N   -0.240994  -0.000000
     2  N   -0.240994   0.000000
     3  H    0.240994   0.000000
     4  H    0.240994  -0.000000
 Sum of Mulliken charges =  -0.00000  -0.00000

 Dipole moment (field-independent basis, Debye):
    X=              0.0000    Y=              0.0000    Z=             -0.0000  Tot=              0.0000
 Quadrupole moment (field-independent basis, Debye-Ang):
   XX=            -14.1780   YY=            -11.1520   ZZ=            -14.1971
   XY=              5.0158   XZ=              0.0000   YZ=              0.0000

 Normal termination of Gaussian 16 at Thu May 15 15:39:13 2025.
