 Gaussian 16, Revision A.03,
 Gaussian 16:  ES64L-G16RevA.03 25-Dec-2016

 ---------------------------------------------------
 #p UM062X/6-311+G** force int=superfine pop=saveNBO
 ---------------------------------------------------

 -------------------
 Title Card Required
 -------------------
 Symbolic Z-matrix:
 Charge =  0 Multiplicity = 1

                         Standard orientation:
 ---------------------------------------------------------------------
 Center     Atomic      Atomic             Coordinates (Angstroms)
 Number     Number       Type             X           Y           Z
 ---------------------------------------------------------------------
      1          6           0        0.000000    0.000000   -3.111703
      2         16           0        0.000000    0.000000    1.166889
 ---------------------------------------------------------------------

 SCF Done:  E(UM062X) =  -435.725605010     A.U. after   17 cycles

 The electronic state is 1-SG.
 Alpha  occ. eigenvalues --  -89.92995 -10.82478  -8.28854  -6.20633  -6.20633
 Alpha  occ. eigenvalues --   -6.20605  -0.72719  -0.71280  -0.28588  -0.27777
 Alpha  occ. eigenvalues --   -0.27777
 Alpha virt. eigenvalues --   -0.20981  -0.20981  -0.19913   0.02415   0.05589
 Alpha virt. eigenvalues --    0.05589   0.05604   0.08224   0.08287   0.08287
 Alpha virt. eigenvalues --    0.13145   0.35966   0.36682   0.36682   0.51105

  Beta  occ. eigenvalues --  -89.92995 -10.82478  -8.28854  -6.20633  -6.20633
  Beta  occ. eigenvalues --   -6.20605  -0.72719  -0.71280  -0.28588  -0.27777
  Beta  occ. eigenvalues --   -0.27777
  Beta virt. eigenvalues --   -0.20981  -0.20981  -0.19913   0.02415   0.05589
  Beta virt. eigenvalues --    0.05589   0.05604   0.08224   0.08287   0.08287
  Beta virt. eigenvalues --    0.13145   0.35966   0.36682   0.36682   0.51105

 Mulliken charges and spin densities:
               1          2
     1  C    0.219113   0.000000
     2  S   -0.219113  -0.000000
 Sum of Mulliken charges =  -0.00000  -0.00000

 Dipole moment (field-independent basis, Debye):
    X=              0.0000    Y=              0.0000    Z=             -4.5336  Tot=              4.5336
 Quadrupole moment (field-independent basis, Debye-Ang):
   XX=            -20.9002   YY=            -20.9002   ZZ=             -9.6499
   XY=              0.0000   XZ=              0.0000   YZ=              0.0000

 Summary of Natural Population Analysis:

                                       Natural Population
                Natural  -----------------------------------------------
    Atom  No    Charge         Core      Valence    Rydberg      Total
 -----------------------------------------------------------------------
      C    1    0.12174      1.00000     1.87787    0.00039     2.87826
      S    2   -0.12174      5.00000     3.12154    0.00020     8.12174
 =======================================================================
   * Total *   -0.00000      6.00000     4.99940    0.00060    11.00000

 Normal termination of Gaussian 16 at Mon Apr 21 19:47:05 2025.
