 Gaussian 16, Revision A.03,
 Gaussian 16:  ES64L-G16RevA.03 25-Dec-2016

 ---------------------------------------------------------
 #p opt UM062X/6-311+G** nosymm int=superfine SCF=NoVarAcc
 ---------------------------------------------------------

 -------------------
 Title Card Required
 -------------------
 Symbolic Z-matrix:
 Charge =  1 Multiplicity = 2

 SCF Done:  E(UM062X) =  -77.8989643710     A.U. after   10 cycles
 SCF Done:  E(UM062X) =  -77.9029017903     A.U. after    9 cycles
 SCF Done:  E(UM062X) =  -77.9054848140     A.U. after   10 cycles
 SCF Done:  E(UM062X) =  -77.9054882145     A.U. after    8 cycles
 Optimization completed.
    -- Stationary point found.

                          Input orientation:
 ---------------------------------------------------------------------
 Center     Atomic      Atomic             Coordinates (Angstroms)
 Number     Number       Type             X           Y           Z
 ---------------------------------------------------------------------
      1          6           0       -2.081027    0.000000    0.000000
      2          6           0        2.081027    0.000000    0.000000
      3          1           0       -2.639931   -0.942614   -0.000000
      4          1           0       -2.639873    0.942648   -0.000000
      5          1           0        2.639931    0.942614    0.000000
      6          1           0        2.639873   -0.942648    0.000000
 ---------------------------------------------------------------------

 Alpha  occ. eigenvalues --  -10.88267 -10.88267  -0.99604  -0.99566  -0.74288
 Alpha  occ. eigenvalues --   -0.74265  -0.57708  -0.56727
 Alpha virt. eigenvalues --   -0.31488  -0.31232  -0.12545  -0.10778  -0.08867
 Alpha virt. eigenvalues --   -0.06959  -0.06284  -0.05797  -0.04116  -0.01353
 Alpha virt. eigenvalues --   -0.00189   0.00486   0.02346   0.05179   0.27502

  Beta  occ. eigenvalues --  -10.87484 -10.87483  -0.97432  -0.97282  -0.73261
  Beta  occ. eigenvalues --   -0.73231  -0.46151
  Beta virt. eigenvalues --   -0.36458  -0.29695  -0.29359  -0.12315  -0.10909
  Beta virt. eigenvalues --   -0.08700  -0.06775  -0.06420  -0.04414  -0.04007
  Beta virt. eigenvalues --   -0.01153   0.00555   0.00838   0.02457   0.05895

 Mulliken charges and spin densities:
               1          2
     1  C    0.024351   0.486218
     2  C    0.024351   0.486218
     3  H    0.237825   0.006891
     4  H    0.237824   0.006891
     5  H    0.237825   0.006891
     6  H    0.237824   0.006891
 Sum of Mulliken charges =   1.00000   1.00000

 Dipole moment (field-independent basis, Debye):
    X=              0.0000    Y=              0.0000    Z=             -0.0000  Tot=              0.0000
 Quadrupole moment (field-independent basis, Debye-Ang):
   XX=             22.2587   YY=             -9.4439   ZZ=            -10.7342
   XY=             -0.0001   XZ=              0.0000   YZ=              0.0000

 Normal termination of Gaussian 16 at Tue Dec  3 13:34:43 2024.
