 Gaussian 16, Revision A.03,
 Gaussian 16:  ES64L-G16RevA.03 25-Dec-2016

 --------------------------------------------
 #p opt UM062X/6-311+G** nosymm int=superfine
 --------------------------------------------

 -------------------
 Title Card Required
 -------------------
 Symbolic Z-matrix:
 Charge =  0 Multiplicity = 1

 SCF Done:  E(UM062X) =  -111.794684309     A.U. after   12 cycles
 SCF Done:  E(UM062X) =  -111.807531872     A.U. after   12 cycles
 SCF Done:  E(UM062X) =  -111.808956132     A.U. after   12 cycles
 SCF Done:  E(UM062X) =  -111.809546372     A.U. after   12 cycles
 SCF Done:  E(UM062X) =  -111.810493555     A.U. after   12 cycles
 SCF Done:  E(UM062X) =  -111.810685118     A.U. after   12 cycles
 SCF Done:  E(UM062X) =  -111.810736608     A.U. after    9 cycles
 SCF Done:  E(UM062X) =  -111.810738542     A.U. after    8 cycles
 SCF Done:  E(UM062X) =  -111.810738591     A.U. after    7 cycles
 Optimization completed.
    -- Stationary point found.

                          Input orientation:
 ---------------------------------------------------------------------
 Center     Atomic      Atomic             Coordinates (Angstroms)
 Number     Number       Type             X           Y           Z
 ---------------------------------------------------------------------
      1          7           0       -0.911540    0.000000    0.000000
      2          7           0        0.911540    0.000000    0.000000
      3          1           0       -1.029104   -0.807121   -0.614097
      4          1           0        1.029046    0.399791   -0.932057
      5          1           0       -1.029064   -0.399603    0.932138
      6          1           0        1.029126    0.806997    0.614261
 ---------------------------------------------------------------------

 Alpha  occ. eigenvalues --  -14.77809 -14.77800  -0.99326  -0.88878  -0.57003
 Alpha  occ. eigenvalues --   -0.50723  -0.43539  -0.42085  -0.32548
 Alpha virt. eigenvalues --    0.01003   0.04557   0.08663   0.08819   0.12955
 Alpha virt. eigenvalues --    0.13205   0.13626   0.15733   0.16209   0.21976
 Alpha virt. eigenvalues --    0.22927   0.26379   0.28257   0.51952   0.52438

  Beta  occ. eigenvalues --  -14.77809 -14.77800  -0.99326  -0.88878  -0.57003
  Beta  occ. eigenvalues --   -0.50723  -0.43539  -0.42085  -0.32548
  Beta virt. eigenvalues --    0.01003   0.04557   0.08663   0.08819   0.12955
  Beta virt. eigenvalues --    0.13205   0.13626   0.15733   0.16209   0.21976
  Beta virt. eigenvalues --    0.22927   0.26379   0.28257   0.51952   0.52438

 Mulliken charges and spin densities:
               1          2
     1  N   -0.522350  -0.000000
     2  N   -0.522351   0.000000
     3  H    0.261182   0.000000
     4  H    0.261180  -0.000000
     5  H    0.261168   0.000000
     6  H    0.261170  -0.000000
 Sum of Mulliken charges =  -0.00000   0.00000

 Dipole moment (field-independent basis, Debye):
    X=              0.0000    Y=              0.0001    Z=              0.0004  Tot=              0.0004
 Quadrupole moment (field-independent basis, Debye-Ang):
   XX=            -15.1266   YY=            -13.9952   ZZ=            -11.1093
   XY=              4.7581   XZ=             -1.2533   YZ=              0.8169

 Normal termination of Gaussian 16 at Thu May 15 14:26:04 2025.
