 Gaussian 16, Revision A.03,
 Gaussian 16:  ES64L-G16RevA.03 25-Dec-2016

 --------------------------------------------
 #p opt UM062X/6-311+G** nosymm int=superfine
 --------------------------------------------

 -------------------
 Title Card Required
 -------------------
 Symbolic Z-matrix:
 Charge =  0 Multiplicity = 1

 SCF Done:  E(UM062X) =  -79.5673384627     A.U. after   10 cycles
 SCF Done:  E(UM062X) =  -79.5713143989     A.U. after    9 cycles
 SCF Done:  E(UM062X) =  -79.5730141585     A.U. after   10 cycles
 SCF Done:  E(UM062X) =  -79.5730274448     A.U. after   10 cycles
 Optimization completed.
    -- Stationary point found.

                          Input orientation:
 ---------------------------------------------------------------------
 Center     Atomic      Atomic             Coordinates (Angstroms)
 Number     Number       Type             X           Y           Z
 ---------------------------------------------------------------------
      1          6           0       -1.996675    0.000000    0.000000
      2          6           0        1.996800    0.000000    0.000000
      3          1           0        2.050187   -0.933543    0.540193
      4          1           0       -2.050045   -0.934596   -0.538370
      5          1           0        2.050174    0.934597    0.538370
      6          1           0        2.050192   -0.001052   -1.078569
      7          1           0       -2.050062    0.933543   -0.540193
      8          1           0       -2.050071    0.001051    1.078569
 ---------------------------------------------------------------------

 Alpha  occ. eigenvalues --  -10.57259 -10.57258  -0.77136  -0.76840  -0.49304
 Alpha  occ. eigenvalues --   -0.49303  -0.49186  -0.49186  -0.21546
 Alpha virt. eigenvalues --   -0.11546   0.03105   0.04949   0.05288   0.05288
 Alpha virt. eigenvalues --    0.07372   0.07372   0.11321   0.12646   0.18672
 Alpha virt. eigenvalues --    0.18673   0.20124   0.20124   0.21843   0.25085

  Beta  occ. eigenvalues --  -10.57259 -10.57258  -0.77136  -0.76840  -0.49304
  Beta  occ. eigenvalues --   -0.49303  -0.49186  -0.49186  -0.21546
  Beta virt. eigenvalues --   -0.11546   0.03105   0.04949   0.05288   0.05288
  Beta virt. eigenvalues --    0.07372   0.07372   0.11321   0.12646   0.18672
  Beta virt. eigenvalues --    0.18673   0.20124   0.20124   0.21843   0.25085

 Mulliken charges and spin densities:
               1          2
     1  C   -0.524106  -0.000000
     2  C   -0.524106   0.000000
     3  H    0.174702  -0.000000
     4  H    0.174702   0.000000
     5  H    0.174702  -0.000000
     6  H    0.174701  -0.000000
     7  H    0.174702   0.000000
     8  H    0.174701   0.000000
 Sum of Mulliken charges =  -0.00000  -0.00000

 Dipole moment (field-independent basis, Debye):
    X=             -0.0000    Y=             -0.0000    Z=             -0.0000  Tot=              0.0000
 Quadrupole moment (field-independent basis, Debye-Ang):
   XX=            -15.8326   YY=            -14.8728   ZZ=            -14.8729
   XY=             -0.0000   XZ=             -0.0000   YZ=             -0.0000

 Normal termination of Gaussian 16 at Tue Dec  3 10:08:19 2024.
