 Gaussian 16, Revision A.03,
 Gaussian 16:  ES64L-G16RevA.03 25-Dec-2016

 ---------------------------------------------------
 #p UM062X/6-311+G** force int=superfine pop=saveNBO
 ---------------------------------------------------

 -------------------
 Title Card Required
 -------------------
 Symbolic Z-matrix:
 Charge =  0 Multiplicity = 1

                         Standard orientation:
 ---------------------------------------------------------------------
 Center     Atomic      Atomic             Coordinates (Angstroms)
 Number     Number       Type             X           Y           Z
 ---------------------------------------------------------------------
      1          6           0        0.000000    0.000000   -2.675340
      2         16           0        0.000000    0.000000    1.003252
 ---------------------------------------------------------------------

 SCF Done:  E(UM062X) =  -435.760519234     A.U. after   29 cycles

 The electronic state is 1-SG.
 Alpha  occ. eigenvalues --  -89.93786 -10.82447  -8.29598  -6.21422  -6.21422
 Alpha  occ. eigenvalues --   -6.21265  -0.73388  -0.70885  -0.30192  -0.28571
 Alpha  occ. eigenvalues --   -0.28571
 Alpha virt. eigenvalues --   -0.20388  -0.20388  -0.18219   0.02678   0.05609
 Alpha virt. eigenvalues --    0.05824   0.05824   0.08444   0.08444   0.08569
 Alpha virt. eigenvalues --    0.13734   0.35906   0.36117   0.36117   0.51805

  Beta  occ. eigenvalues --  -89.93786 -10.82447  -8.29598  -6.21422  -6.21422
  Beta  occ. eigenvalues --   -6.21265  -0.73388  -0.70885  -0.30192  -0.28571
  Beta  occ. eigenvalues --   -0.28571
  Beta virt. eigenvalues --   -0.20388  -0.20388  -0.18219   0.02678   0.05609
  Beta virt. eigenvalues --    0.05824   0.05824   0.08444   0.08444   0.08569
  Beta virt. eigenvalues --    0.13734   0.35906   0.36117   0.36117   0.51805

 Mulliken charges and spin densities:
               1          2
     1  C    0.216431   0.000000
     2  S   -0.216431  -0.000000
 Sum of Mulliken charges =  -0.00000   0.00000

 Dipole moment (field-independent basis, Debye):
    X=              0.0000    Y=              0.0000    Z=             -3.7744  Tot=              3.7744
 Quadrupole moment (field-independent basis, Debye-Ang):
   XX=            -20.9007   YY=            -20.9007   ZZ=            -11.9183
   XY=              0.0000   XZ=              0.0000   YZ=              0.0000

 Summary of Natural Population Analysis:

                                       Natural Population
                Natural  -----------------------------------------------
    Atom  No    Charge         Core      Valence    Rydberg      Total
 -----------------------------------------------------------------------
      C    1    0.12413      1.00000     1.87542    0.00045     2.87587
      S    2   -0.12413      5.00000     3.12384    0.00029     8.12413
 =======================================================================
   * Total *   -0.00000      6.00000     4.99926    0.00074    11.00000

 Normal termination of Gaussian 16 at Mon Apr 21 19:46:54 2025.
