 Gaussian 16, Revision A.03,
 Gaussian 16:  ES64L-G16RevA.03 25-Dec-2016

 --------------------------------------------
 #p opt UM062X/6-311+G** nosymm int=superfine
 --------------------------------------------

 -------------------
 Title Card Required
 -------------------
 Symbolic Z-matrix:
 Charge =  1 Multiplicity = 2

 SCF Done:  E(UM062X) =  -80.2566043936     A.U. after   14 cycles
 SCF Done:  E(UM062X) =  -80.3171256608     A.U. after   13 cycles
 SCF Done:  E(UM062X) =  -80.3619580866     A.U. after   14 cycles
 SCF Done:  E(UM062X) =  -80.3713973160     A.U. after   12 cycles
 SCF Done:  E(UM062X) =  -80.3770976392     A.U. after   12 cycles
 SCF Done:  E(UM062X) =  -80.3779798889     A.U. after   11 cycles
 SCF Done:  E(UM062X) =  -80.3795894987     A.U. after   11 cycles
 SCF Done:  E(UM062X) =  -80.3802590216     A.U. after   13 cycles
 SCF Done:  E(UM062X) =  -80.3803826102     A.U. after   10 cycles
 SCF Done:  E(UM062X) =  -80.3804024362     A.U. after    9 cycles
 SCF Done:  E(UM062X) =  -80.3804043789     A.U. after    7 cycles
 Optimization completed.
    -- Stationary point found.

                          Input orientation:
 ---------------------------------------------------------------------
 Center     Atomic      Atomic             Coordinates (Angstroms)
 Number     Number       Type             X           Y           Z
 ---------------------------------------------------------------------
      1          5           0       -0.467760   -0.399858   -0.000000
      2          7           0        0.524467    0.448513    0.000000
      3          1           0       -1.355300   -1.159063   -0.000000
      4          1           0        1.298593    1.110407    0.000000
 ---------------------------------------------------------------------

 Alpha  occ. eigenvalues --  -15.12150  -7.43678  -1.30659  -0.97317  -0.80694
 Alpha  occ. eigenvalues --   -0.75970  -0.71747
 Alpha virt. eigenvalues --   -0.25551  -0.24079  -0.17768  -0.12977  -0.11146
 Alpha virt. eigenvalues --   -0.10764  -0.10300  -0.06512  -0.01847  -0.01438
 Alpha virt. eigenvalues --    0.02339   0.06121   0.15001   0.18198   0.18234

  Beta  occ. eigenvalues --  -15.11267  -7.43692  -1.24067  -0.95099  -0.80451
  Beta  occ. eigenvalues --   -0.68958
  Beta virt. eigenvalues --   -0.45191  -0.23295  -0.20800  -0.17797  -0.12713
  Beta virt. eigenvalues --   -0.11074  -0.10305  -0.10173  -0.05959  -0.01429
  Beta virt. eigenvalues --   -0.01369   0.01104   0.06520   0.15290   0.17277

 Mulliken charges and spin densities:
               1          2
     1  B    0.475016   0.117964
     2  N   -0.056798   0.922910
     3  H    0.179510  -0.012524
     4  H    0.402272  -0.028350
 Sum of Mulliken charges =   1.00000   1.00000

 Dipole moment (field-independent basis, Debye):
    X=              0.1768    Y=              0.1516    Z=              0.0000  Tot=              0.2329
 Quadrupole moment (field-independent basis, Debye-Ang):
   XX=             -5.2916   YY=             -6.7893   ZZ=             -9.1945
   XY=              4.7629   XZ=              0.0000   YZ=             -0.0000

 Normal termination of Gaussian 16 at Wed Apr 16 00:59:03 2025.
