 Gaussian 16, Revision A.03,
 Gaussian 16:  ES64L-G16RevA.03 25-Dec-2016

 --------------------------------------------
 #p opt UM062X/6-311+G** nosymm int=superfine
 --------------------------------------------

 -------------------
 Title Card Required
 -------------------
 Symbolic Z-matrix:
 Charge =  0 Multiplicity = 1

 SCF Done:  E(UM062X) =  -80.4094115570     A.U. after   16 cycles
 SCF Done:  E(UM062X) =  -80.4127028713     A.U. after    9 cycles
 SCF Done:  E(UM062X) =  -80.4127489851     A.U. after    9 cycles
 Optimization completed.
    -- Stationary point found.

                          Input orientation:
 ---------------------------------------------------------------------
 Center     Atomic      Atomic             Coordinates (Angstroms)
 Number     Number       Type             X           Y           Z
 ---------------------------------------------------------------------
      1          5           0       -2.092066    0.000000    0.000000
      2          7           0        2.092066    0.000000    0.000000
      3          1           0       -3.324464   -0.000646    0.000000
      4          1           0        3.131016    0.000372   -0.000000
 ---------------------------------------------------------------------

 Alpha  occ. eigenvalues --  -14.82693  -7.12136  -0.89175  -0.54343  -0.45706
 Alpha  occ. eigenvalues --   -0.33350  -0.27364
 Alpha virt. eigenvalues --   -0.12207  -0.04047  -0.04010   0.02576   0.04110
 Alpha virt. eigenvalues --    0.06625   0.06714   0.09502   0.13689   0.14709
 Alpha virt. eigenvalues --    0.16459   0.19107   0.24816   0.38210   0.42473

  Beta  occ. eigenvalues --  -14.82693  -7.12136  -0.89175  -0.54343  -0.45706
  Beta  occ. eigenvalues --   -0.33350  -0.27364
  Beta virt. eigenvalues --   -0.12207  -0.04047  -0.04010   0.02576   0.04110
  Beta virt. eigenvalues --    0.06625   0.06714   0.09502   0.13689   0.14709
  Beta virt. eigenvalues --    0.16459   0.19107   0.24816   0.38210   0.42473

 Mulliken charges and spin densities:
               1          2
     1  B   -0.003704   0.000000
     2  N   -0.196103   0.000000
     3  H   -0.010089   0.000000
     4  H    0.209896  -0.000000
 Sum of Mulliken charges =  -0.00000   0.00000

 Dipole moment (field-independent basis, Debye):
    X=              0.1891    Y=             -0.0003    Z=             -0.0000  Tot=              0.1891
 Quadrupole moment (field-independent basis, Debye-Ang):
   XX=             -2.3172   YY=            -11.8453   ZZ=            -15.1208
   XY=              0.0013   XZ=             -0.0000   YZ=              0.0000

 Normal termination of Gaussian 16 at Mon Apr 21 18:04:06 2025.
