 Gaussian 16, Revision A.03,
 Gaussian 16:  ES64L-G16RevA.03 25-Dec-2016

 --------------------------------------------
 #p opt UM062X/6-311+G** nosymm int=superfine
 --------------------------------------------

 -------------------
 Title Card Required
 -------------------
 Symbolic Z-matrix:
 Charge =  1 Multiplicity = 2

 SCF Done:  E(UM062X) =  -76.9007240180     A.U. after    9 cycles
 SCF Done:  E(UM062X) =  -76.9008740690     A.U. after    9 cycles
 Optimization completed.
    -- Stationary point found.

                          Input orientation:
 ---------------------------------------------------------------------
 Center     Atomic      Atomic             Coordinates (Angstroms)
 Number     Number       Type             X           Y           Z
 ---------------------------------------------------------------------
      1          6           0       -0.615129    0.000000    0.000000
      2          6           0        0.615129    0.000000    0.000000
      3          1           0       -1.696323   -0.000000   -0.000000
      4          1           0        1.696323   -0.000000    0.000000
 ---------------------------------------------------------------------

 Alpha  occ. eigenvalues --  -10.93964 -10.93726  -1.23346  -0.97014  -0.89677
 Alpha  occ. eigenvalues --   -0.73325  -0.70580
 Alpha virt. eigenvalues --   -0.27006  -0.25004  -0.15357  -0.14515  -0.11591
 Alpha virt. eigenvalues --   -0.10382  -0.10124  -0.06019  -0.04726  -0.04277
 Alpha virt. eigenvalues --    0.02289   0.04549   0.16107   0.18575   0.29077

  Beta  occ. eigenvalues --  -10.93712 -10.93499  -1.18498  -0.95432  -0.89118
  Beta  occ. eigenvalues --   -0.68066
  Beta virt. eigenvalues --   -0.46524  -0.23420  -0.20744  -0.15632  -0.14521
  Beta virt. eigenvalues --   -0.11694  -0.10644  -0.10330  -0.05493  -0.04102
  Beta virt. eigenvalues --   -0.03454   0.02089   0.04803   0.16641   0.19401

 Mulliken charges and spin densities:
               1          2
     1  C    0.192996   0.519369
     2  C    0.192996   0.519369
     3  H    0.307003  -0.019369
     4  H    0.307004  -0.019369
 Sum of Mulliken charges =   1.00000   1.00000

 Dipole moment (field-independent basis, Debye):
    X=              0.0000    Y=              0.0000    Z=             -0.0000  Tot=              0.0000
 Quadrupole moment (field-independent basis, Debye-Ang):
   XX=             -0.5971   YY=             -9.7977   ZZ=            -11.1529
   XY=             -0.0000   XZ=              0.0000   YZ=              0.5869

 Normal termination of Gaussian 16 at Tue Nov 19 13:01:04 2024.
