 Gaussian 16, Revision A.03,
 Gaussian 16:  ES64L-G16RevA.03 25-Dec-2016

 --------------------------------------------
 #p opt UM062X/6-311+G** nosymm int=superfine
 --------------------------------------------

 -------------------
 Title Card Required
 -------------------
 Symbolic Z-matrix:
 Charge =  1 Multiplicity = 2

 SCF Done:  E(UM062X) =  -1615.54714092     A.U. after   28 cycles
 SCF Done:  E(UM062X) =  -1615.54786678     A.U. after   23 cycles
 SCF Done:  E(UM062X) =  -1615.54772222     A.U. after   24 cycles
 SCF Done:  E(UM062X) =  -1615.54773623     A.U. after   26 cycles
 SCF Done:  E(UM062X) =  -1615.54788556     A.U. after   22 cycles
 SCF Done:  E(UM062X) =  -1615.54790815     A.U. after   22 cycles
 SCF Done:  E(UM062X) =  -1615.54790932     A.U. after   19 cycles
 SCF Done:  E(UM062X) =  -1615.54791132     A.U. after   17 cycles
 SCF Done:  E(UM062X) =  -1615.54791144     A.U. after   17 cycles
 SCF Done:  E(UM062X) =  -1615.54791157     A.U. after   17 cycles
 SCF Done:  E(UM062X) =  -1615.54791170     A.U. after   13 cycles
 SCF Done:  E(UM062X) =  -1615.54791184     A.U. after   19 cycles
 SCF Done:  E(UM062X) =  -1615.54791188     A.U. after   17 cycles
 SCF Done:  E(UM062X) =  -1615.54791190     A.U. after   17 cycles
 Optimization completed.
    -- Stationary point found.

                          Input orientation:
 ---------------------------------------------------------------------
 Center     Atomic      Atomic             Coordinates (Angstroms)
 Number     Number       Type             X           Y           Z
 ---------------------------------------------------------------------
      1          6           0       -1.868881    0.000000    0.000000
      2          6           0        1.868881    0.000000    0.000000
      3          6           0        0.000018   -1.983415   -0.006270
      4          6           0        0.000004   -3.394225   -0.010785
      5          6           0       -1.118290   -4.242099    0.230362
      6          6           0       -1.350587   -1.420792    0.183593
      7          6           0        0.657649   -5.633257   -0.165881
      8          1           0        1.288785   -6.497741   -0.314364
      9          6           0       -1.890358    0.792268    1.199084
     10          6           0       -0.657684   -5.634195    0.129925
     11          1           0       -1.288839   -6.499603    0.272847
     12          6           0        1.118277   -4.240554   -0.257399
     13          6           0        1.350621   -1.419603   -0.192580
     14          6           0        2.399329    2.135027   -1.326844
     15          6           0       -2.141802    0.346738   -1.368541
     16          6           0       -2.364703    2.746416    2.602005
     17          1           0       -2.770566    3.747389    2.688292
     18          6           0       -2.329151   -3.679356    0.503229
     19          1           0       -3.214077   -4.267593    0.715421
     20          6           0       -2.596534    1.619158   -1.851127
     21          6           0        2.408817   -2.266157   -0.470162
     22          1           0        3.384441   -1.811420   -0.609245
     23          6           0        2.141680    0.338184    1.370720
     24          6           0        2.596033    1.607680    1.861301
     25          6           0        2.329127   -3.676090   -0.526744
     26          1           0        3.214030   -4.262967   -0.742766
     27          6           0       -2.399222    2.126708    1.340173
     28          6           0       -1.346939    0.197451    2.378218
     29          1           0       -0.955505   -0.807010    2.327440
     30          6           0        1.913732   -0.672780    2.356170
     31          1           0        1.622866   -1.663992    2.042584
     32          6           0       -1.826873    2.134417    3.715057
     33          1           0       -1.815189    2.647651    4.668614
     34          6           0       -2.408824   -2.269090    0.455646
     35          1           0       -3.384461   -1.815250    0.597546
     36          6           0       -2.720657    1.824289   -3.237744
     37          1           0       -3.058161    2.795633   -3.579356
     38          6           0        1.890429    0.799752   -1.194108
     39          6           0       -2.944506    2.941419    0.286960
     40          1           0       -3.331658    3.896496    0.627570
     41          6           0       -2.450272    0.837795   -4.161809
     42          1           0       -2.566370    1.034234   -5.220682
     43          6           0       -3.001899    2.740281   -1.043891
     44          1           0       -3.422954    3.560143   -1.617055
     45          6           0        2.719885    1.804195    3.249181
     46          1           0        3.057048    2.773492    3.596895
     47          6           0       -1.303903    0.844472    3.591193
     48          1           0       -0.871868    0.342519    4.448317
     49          6           0       -1.913615   -0.657975   -2.360308
     50          1           0       -1.622399   -1.651032   -2.052943
     51          6           0        2.449713    0.811864    4.167050
     52          1           0        2.565636    1.001731    5.227141
     53          6           0        2.365092    2.762511   -2.584823
     54          1           0        2.771031    3.763974   -2.664850
     55          6           0        2.061478   -0.449187    3.704677
     56          1           0        1.880330   -1.257711    4.402730
     57          6           0        1.827435    2.157437   -3.701749
     58          1           0        1.815991    2.676549   -4.652121
     59          6           0        2.944312    2.943251   -0.268463
     60          1           0        3.331462    3.900449   -0.603066
     61          6           0       -2.061536   -0.425992   -3.707369
     62          1           0       -1.880163   -1.230057   -4.410495
     63          6           0        3.001356    2.733892    1.061125
     64          1           0        3.422145    3.550238    1.639480
     65          6           0        1.347129    0.212295   -2.376968
     66          1           0        0.955616   -0.792435   -2.332442
     67          6           0        1.304321    0.866813   -3.585934
     68          1           0        0.872377    0.370201   -4.446211
 ---------------------------------------------------------------------

 Alpha  occ. eigenvalues --  -10.70662 -10.70658 -10.68536 -10.68534 -10.68379
 Alpha  occ. eigenvalues --  -10.68377 -10.68221 -10.68118 -10.68115 -10.67914
 Alpha  occ. eigenvalues --  -10.67911 -10.67716 -10.67713 -10.66365 -10.66363
 Alpha  occ. eigenvalues --  -10.66258 -10.66256 -10.65837 -10.65835 -10.65750
 Alpha  occ. eigenvalues --  -10.65748 -10.65621 -10.65618 -10.65500 -10.65498
 Alpha  occ. eigenvalues --  -10.65438 -10.65436 -10.65321 -10.65319 -10.65260
 Alpha  occ. eigenvalues --  -10.65258 -10.65166 -10.65165 -10.65146 -10.65146
 Alpha  occ. eigenvalues --  -10.65052 -10.65051 -10.64738 -10.64736 -10.64036
 Alpha  occ. eigenvalues --  -10.63607 -10.63504  -1.11406  -1.10379  -1.09734
 Alpha  occ. eigenvalues --   -1.07952  -1.07785  -1.04963  -1.04831  -1.02178
 Alpha  occ. eigenvalues --   -1.02044  -1.00956  -0.99934  -0.97727  -0.97510
 Alpha  occ. eigenvalues --   -0.96403  -0.96225  -0.94724  -0.93466  -0.93320
 Alpha  occ. eigenvalues --   -0.92736  -0.91537  -0.87086  -0.86873  -0.84751
 Alpha  occ. eigenvalues --   -0.84619  -0.82948  -0.81354  -0.80586  -0.79646
 Alpha  occ. eigenvalues --   -0.79464  -0.79348  -0.76986  -0.76108  -0.75945
 Alpha  occ. eigenvalues --   -0.75745  -0.75124  -0.73083  -0.69777  -0.69425
 Alpha  occ. eigenvalues --   -0.68498  -0.68470  -0.67672  -0.67472  -0.66663
 Alpha  occ. eigenvalues --   -0.66660  -0.65668  -0.65226  -0.65039  -0.64421
 Alpha  occ. eigenvalues --   -0.63180  -0.62723  -0.62345  -0.61832  -0.60707
 Alpha  occ. eigenvalues --   -0.60604  -0.60334  -0.60020  -0.59791  -0.59527
 Alpha  occ. eigenvalues --   -0.59252  -0.58499  -0.58235  -0.57924  -0.57610
 Alpha  occ. eigenvalues --   -0.57343  -0.56188  -0.55890  -0.55514  -0.55489
 Alpha  occ. eigenvalues --   -0.54836  -0.54736  -0.52837  -0.52663  -0.52541
 Alpha  occ. eigenvalues --   -0.52274  -0.52146  -0.51789  -0.50819  -0.50810
 Alpha  occ. eigenvalues --   -0.50624  -0.49758  -0.49673  -0.49468  -0.48691
 Alpha  occ. eigenvalues --   -0.48562  -0.47994  -0.47952  -0.46311  -0.44157
 Alpha  occ. eigenvalues --   -0.43080  -0.42844  -0.41147  -0.40281  -0.38775
 Alpha  occ. eigenvalues --   -0.37968  -0.37804  -0.36929  -0.28870
 Alpha virt. eigenvalues --   -0.22174  -0.15259  -0.15178  -0.14721  -0.10311
 Alpha virt. eigenvalues --   -0.09153  -0.08710  -0.08522  -0.08248  -0.07716
 Alpha virt. eigenvalues --   -0.07303  -0.07208  -0.06619  -0.06219  -0.06165

  Beta  occ. eigenvalues --  -10.70500 -10.70496 -10.68581 -10.68579 -10.68426
  Beta  occ. eigenvalues --  -10.68423 -10.68194 -10.68077 -10.68074 -10.67868
  Beta  occ. eigenvalues --  -10.67865 -10.67735 -10.67731 -10.66358 -10.66355
  Beta  occ. eigenvalues --  -10.66251 -10.66248 -10.65801 -10.65799 -10.65718
  Beta  occ. eigenvalues --  -10.65715 -10.65578 -10.65575 -10.65460 -10.65457
  Beta  occ. eigenvalues --  -10.65455 -10.65453 -10.65336 -10.65335 -10.65281
  Beta  occ. eigenvalues --  -10.65279 -10.65185 -10.65183 -10.65140 -10.65140
  Beta  occ. eigenvalues --  -10.65041 -10.65040 -10.64738 -10.64736 -10.64035
  Beta  occ. eigenvalues --  -10.63607 -10.63504  -1.11274  -1.10201  -1.09655
  Beta  occ. eigenvalues --   -1.07848  -1.07686  -1.04811  -1.04666  -1.02062
  Beta  occ. eigenvalues --   -1.01935  -1.00777  -0.99771  -0.97623  -0.97405
  Beta  occ. eigenvalues --   -0.96296  -0.96132  -0.94684  -0.93396  -0.93218
  Beta  occ. eigenvalues --   -0.92655  -0.91456  -0.86775  -0.86524  -0.84684
  Beta  occ. eigenvalues --   -0.84554  -0.82873  -0.81263  -0.80489  -0.79569
  Beta  occ. eigenvalues --   -0.79388  -0.79269  -0.76881  -0.75986  -0.75774
  Beta  occ. eigenvalues --   -0.75578  -0.75066  -0.72978  -0.69656  -0.69276
  Beta  occ. eigenvalues --   -0.68390  -0.68381  -0.67624  -0.67425  -0.66544
  Beta  occ. eigenvalues --   -0.66541  -0.65555  -0.65076  -0.64891  -0.64329
  Beta  occ. eigenvalues --   -0.63010  -0.62664  -0.62242  -0.61759  -0.60577
  Beta  occ. eigenvalues --   -0.60470  -0.60219  -0.59935  -0.59730  -0.59343
  Beta  occ. eigenvalues --   -0.59041  -0.58432  -0.58027  -0.57831  -0.57386
  Beta  occ. eigenvalues --   -0.57264  -0.55814  -0.55671  -0.55439  -0.55436
  Beta  occ. eigenvalues --   -0.54786  -0.54423  -0.52735  -0.52562  -0.52488
  Beta  occ. eigenvalues --   -0.52162  -0.52031  -0.51771  -0.50761  -0.50713
  Beta  occ. eigenvalues --   -0.50532  -0.49579  -0.49480  -0.49211  -0.48356
  Beta  occ. eigenvalues --   -0.48204  -0.47953  -0.46949  -0.45563  -0.43769
  Beta  occ. eigenvalues --   -0.42656  -0.42166  -0.40870  -0.40195  -0.38270
  Beta  occ. eigenvalues --   -0.37799  -0.37348  -0.36921
  Beta virt. eigenvalues --   -0.19687  -0.18593  -0.15251  -0.15220  -0.14798
  Beta virt. eigenvalues --   -0.10083  -0.08748  -0.08306  -0.08273  -0.08112
  Beta virt. eigenvalues --   -0.07394  -0.07357  -0.07189  -0.06597  -0.06268

 Mulliken charges and spin densities:
               1          2
     1  C    0.085642   0.305694
     2  C    0.085782   0.306021
     3  C    0.166397   0.012386
     4  C    0.071846  -0.009992
     5  C    0.028742   0.007738
     6  C    0.287232  -0.020433
     7  C   -0.271796   0.001109
     8  H    0.175679   0.000003
     9  C   -0.036824  -0.112217
    10  C   -0.271772   0.001108
    11  H    0.175677   0.000003
    12  C    0.028769   0.007738
    13  C    0.287155  -0.020468
    14  C    0.366315   0.100118
    15  C    0.315496  -0.062756
    16  C   -0.193937  -0.033911
    17  H    0.173905   0.001026
    18  C   -0.397921   0.004191
    19  H    0.173954   0.000012
    20  C    0.399637   0.082391
    21  C   -0.426201   0.019621
    22  H    0.167887   0.000311
    23  C    0.315569  -0.062799
    24  C    0.399545   0.082459
    25  C   -0.397952   0.004199
    26  H    0.173955   0.000012
    27  C    0.366279   0.100037
    28  C    0.158891   0.099911
    29  H    0.192123  -0.006278
    30  C   -0.281234   0.039374
    31  H    0.232919  -0.004492
    32  C   -0.438334   0.077567
    33  H    0.179444  -0.003808
    34  C   -0.426281   0.019617
    35  H    0.167879   0.000312
    36  C   -0.170505  -0.041597
    37  H    0.169176   0.000811
    38  C   -0.036933  -0.112258
    39  C   -0.425508   0.013741
    40  H    0.177051  -0.001152
    41  C   -0.188646   0.071692
    42  H    0.180572  -0.003352
    43  C   -0.322666   0.028107
    44  H    0.178199  -0.001273
    45  C   -0.170533  -0.041657
    46  H    0.169157   0.000813
    47  C    0.008631  -0.037546
    48  H    0.163327   0.001792
    49  C   -0.281117   0.039323
    50  H    0.232946  -0.004491
    51  C   -0.188580   0.071789
    52  H    0.180565  -0.003357
    53  C   -0.193741  -0.033949
    54  H    0.173904   0.001027
    55  C   -0.455430  -0.028698
    56  H    0.175008   0.000962
    57  C   -0.438565   0.077655
    58  H    0.179442  -0.003812
    59  C   -0.425534   0.013764
    60  H    0.177039  -0.001153
    61  C   -0.455237  -0.028638
    62  H    0.175008   0.000961
    63  C   -0.322728   0.028131
    64  H    0.178188  -0.001273
    65  C    0.159290   0.099931
    66  H    0.192109  -0.006279
    67  C    0.008331  -0.037609
    68  H    0.163318   0.001793
 Sum of Mulliken charges =   1.00000   1.00000

 Dipole moment (field-independent basis, Debye):
    X=             -0.0032    Y=              2.8826    Z=              0.0083  Tot=              2.8826
 Quadrupole moment (field-independent basis, Debye-Ang):
   XX=           -206.7896   YY=           -178.1311   ZZ=           -178.4163
   XY=             -0.0301   XZ=              7.5098   YZ=              0.0059

 Normal termination of Gaussian 16 at Thu Nov 21 05:58:28 2024.
