 Gaussian 16, Revision A.03,
 Gaussian 16:  ES64L-G16RevA.03 25-Dec-2016

 --------------------------------------------
 #p opt UM062X/6-311+G** nosymm int=superfine
 --------------------------------------------

 -------------------
 Title Card Required
 -------------------
 Symbolic Z-matrix:
 Charge =  0 Multiplicity = 1

 SCF Done:  E(UM062X) =  -92.8444618610     A.U. after   12 cycles
 SCF Done:  E(UM062X) =  -92.8464379570     A.U. after   11 cycles
 SCF Done:  E(UM062X) =  -92.8464490519     A.U. after    8 cycles
 Optimization completed.
    -- Stationary point found.

                          Input orientation:
 ---------------------------------------------------------------------
 Center     Atomic      Atomic             Coordinates (Angstroms)
 Number     Number       Type             X           Y           Z
 ---------------------------------------------------------------------
      1          6           0       -1.547395    0.000000    0.000000
      2          7           0        1.547395    0.000000    0.000000
      3          1           0       -2.673070   -0.000000    0.000000
 ---------------------------------------------------------------------

 Alpha  occ. eigenvalues --  -14.83055 -10.75926  -0.79841  -0.77310  -0.44917
 Alpha  occ. eigenvalues --   -0.27483  -0.27483
 Alpha virt. eigenvalues --   -0.17308  -0.17308  -0.08677   0.00231   0.06743
 Alpha virt. eigenvalues --    0.06743   0.07623   0.12961   0.16840   0.17200
 Alpha virt. eigenvalues --    0.17200   0.24603   0.42607   0.52340   0.52340

  Beta  occ. eigenvalues --  -14.83055 -10.75926  -0.79841  -0.77310  -0.44917
  Beta  occ. eigenvalues --   -0.27483  -0.27483
  Beta virt. eigenvalues --   -0.17308  -0.17308  -0.08677   0.00231   0.06743
  Beta virt. eigenvalues --    0.06743   0.07623   0.12961   0.16840   0.17200
  Beta virt. eigenvalues --    0.17200   0.24603   0.42607   0.52340   0.52340

 Mulliken charges and spin densities:
               1          2
     1  C    0.037563  -0.000000
     2  N   -0.218807   0.000000
     3  H    0.181244   0.000000
 Sum of Mulliken charges =  -0.00000  -0.00000

 Dipole moment (field-independent basis, Debye):
    X=             -5.2748    Y=             -0.0000    Z=              0.0000  Tot=              5.2748
 Quadrupole moment (field-independent basis, Debye-Ang):
   XX=             -5.1652   YY=            -14.3106   ZZ=            -14.3106
   XY=              0.0000   XZ=              0.0000   YZ=              0.0000

 Normal termination of Gaussian 16 at Mon Apr 21 18:39:48 2025.
