 Gaussian 16, Revision A.03,
 Gaussian 16:  ES64L-G16RevA.03 25-Dec-2016

 ---------------------------------------------------
 #p UM062X/6-311+G** force int=superfine pop=saveNBO
 ---------------------------------------------------

 -------------------
 Title Card Required
 -------------------
 Symbolic Z-matrix:
 Charge =  0 Multiplicity = 1

                         Standard orientation:
 ---------------------------------------------------------------------
 Center     Atomic      Atomic             Coordinates (Angstroms)
 Number     Number       Type             X           Y           Z
 ---------------------------------------------------------------------
      1          6           0        0.000000    0.000000   -1.755522
      2          8           0        0.000000    0.000000    1.316642
 ---------------------------------------------------------------------

 SCF Done:  E(UM062X) =  -112.671889534     A.U. after   24 cycles

 The electronic state is 1-SG.
 Alpha  occ. eigenvalues --  -19.69200 -10.86921  -0.98245  -0.74043  -0.34546
 Alpha  occ. eigenvalues --   -0.32285  -0.32285
 Alpha virt. eigenvalues --   -0.22360  -0.22360  -0.20199   0.02108   0.05830
 Alpha virt. eigenvalues --    0.05830   0.07089   0.19833   0.22028   0.22028
 Alpha virt. eigenvalues --    0.27952   0.49388   0.49388   0.51123   0.59809

  Beta  occ. eigenvalues --  -19.69200 -10.86921  -0.98245  -0.74043  -0.34546
  Beta  occ. eigenvalues --   -0.32285  -0.32285
  Beta virt. eigenvalues --   -0.22360  -0.22360  -0.20199   0.02108   0.05830
  Beta virt. eigenvalues --    0.05830   0.07089   0.19833   0.22028   0.22028
  Beta virt. eigenvalues --    0.27952   0.49388   0.49388   0.51123   0.59809

 Mulliken charges and spin densities:
               1          2
     1  C    0.367024  -0.000000
     2  O   -0.367024   0.000000
 Sum of Mulliken charges =  -0.00000   0.00000

 Dipole moment (field-independent basis, Debye):
    X=              0.0000    Y=              0.0000    Z=             -5.3864  Tot=              5.3864
 Quadrupole moment (field-independent basis, Debye-Ang):
   XX=            -12.1817   YY=            -12.1817   ZZ=             -8.3308
   XY=              0.0000   XZ=              0.0000   YZ=              0.0000

 Summary of Natural Population Analysis:

                                       Natural Population
                Natural  -----------------------------------------------
    Atom  No    Charge         Core      Valence    Rydberg      Total
 -----------------------------------------------------------------------
      C    1    0.23144      1.00000     1.76839    0.00017     2.76856
      O    2   -0.23144      1.00000     3.23131    0.00013     4.23144
 =======================================================================
   * Total *   -0.00000      2.00000     4.99970    0.00030     7.00000

 Normal termination of Gaussian 16 at Mon Apr 21 19:31:06 2025.
