 Gaussian 16, Revision A.03,
 Gaussian 16:  ES64L-G16RevA.03 25-Dec-2016

 --------------------------------------------
 #p opt UM062X/6-311+G** nosymm int=superfine
 --------------------------------------------

 -------------------
 Title Card Required
 -------------------
 Symbolic Z-matrix:
 Charge =  1 Multiplicity = 2

 SCF Done:  E(UM062X) =  -580.871794336     A.U. after   14 cycles
 SCF Done:  E(UM062X) =  -580.878925300     A.U. after    9 cycles
 SCF Done:  E(UM062X) =  -580.880906494     A.U. after   12 cycles
 SCF Done:  E(UM062X) =  -580.880909021     A.U. after   10 cycles
 Optimization completed.
    -- Stationary point found.

                          Input orientation:
 ---------------------------------------------------------------------
 Center     Atomic      Atomic             Coordinates (Angstroms)
 Number     Number       Type             X           Y           Z
 ---------------------------------------------------------------------
      1         14           0       -2.066295    0.000000    0.000000
      2         14           0        2.066295    0.000000    0.000000
      3          1           0       -2.961210   -1.191225    0.000051
      4          1           0        2.961210    1.191225    0.001082
      5          1           0       -2.961224    1.191214   -0.000067
      6          1           0        2.961224   -1.191214   -0.001098
 ---------------------------------------------------------------------

 Alpha  occ. eigenvalues --  -67.24416 -67.24416  -5.78902  -5.78900  -4.10174
 Alpha  occ. eigenvalues --   -4.10174  -4.09847  -4.09847  -4.09508  -4.09507
 Alpha  occ. eigenvalues --   -0.78502  -0.78256  -0.60247  -0.60182  -0.50523
 Alpha  occ. eigenvalues --   -0.46895
 Alpha virt. eigenvalues --   -0.27544  -0.26575  -0.13203  -0.12069  -0.09282
 Alpha virt. eigenvalues --   -0.08000  -0.07858  -0.07477  -0.06784  -0.06167
 Alpha virt. eigenvalues --   -0.06062  -0.05788  -0.05601  -0.03426   0.13322

  Beta  occ. eigenvalues --  -67.24068 -67.24068  -5.78632  -5.78631  -4.10069
  Beta  occ. eigenvalues --   -4.10068  -4.09393  -4.09393  -4.09062  -4.09062
  Beta  occ. eigenvalues --   -0.76680  -0.76278  -0.59069  -0.58987  -0.44493
  Beta virt. eigenvalues --   -0.32142  -0.26358  -0.25193  -0.12176  -0.11595
  Beta virt. eigenvalues --   -0.09374  -0.07524  -0.07241  -0.06563  -0.06442
  Beta virt. eigenvalues --   -0.05926  -0.05494  -0.05407  -0.05343  -0.03026

 Mulliken charges and spin densities:
               1          2
     1  Si   0.556795   0.386110
     2  Si   0.556795   0.386110
     3  H   -0.028397   0.056945
     4  H   -0.028397   0.056945
     5  H   -0.028397   0.056945
     6  H   -0.028397   0.056945
 Sum of Mulliken charges =   1.00000   1.00000

 Dipole moment (field-independent basis, Debye):
    X=              0.0000    Y=              0.0000    Z=             -0.0000  Tot=              0.0000
 Quadrupole moment (field-independent basis, Debye-Ang):
   XX=             -0.2570   YY=            -25.8107   ZZ=            -20.8337
   XY=             -0.0000   XZ=              0.0000   YZ=             -0.0022

 Normal termination of Gaussian 16 at Mon Apr 21 20:26:06 2025.
