 Gaussian 16, Revision A.03,
 Gaussian 16:  ES64L-G16RevA.03 25-Dec-2016

 --------------------------------------------
 #p opt UM062X/6-311+G** nosymm int=superfine
 --------------------------------------------

 -------------------
 Title Card Required
 -------------------
 Symbolic Z-matrix:
 Charge =  0 Multiplicity = 1

 SCF Done:  E(UM062X) =  -797.398497759     A.U. after   14 cycles
 SCF Done:  E(UM062X) =  -797.398794177     A.U. after   12 cycles
 SCF Done:  E(UM062X) =  -797.399467176     A.U. after   14 cycles
 SCF Done:  E(UM062X) =  -797.399633578     A.U. after   15 cycles
 SCF Done:  E(UM062X) =  -797.399798494     A.U. after   14 cycles
 SCF Done:  E(UM062X) =  -797.399802846     A.U. after   13 cycles
 SCF Done:  E(UM062X) =  -797.399802857     A.U. after   11 cycles
 Optimization completed.
    -- Stationary point found.

                          Input orientation:
 ---------------------------------------------------------------------
 Center     Atomic      Atomic             Coordinates (Angstroms)
 Number     Number       Type             X           Y           Z
 ---------------------------------------------------------------------
      1         16           0       -2.043191    0.000000    0.000000
      2         16           0        2.043191    0.000000    0.000000
      3          1           0       -1.901849   -1.274939   -0.408714
      4          1           0        1.900166    0.420680    1.270846
 ---------------------------------------------------------------------

 Alpha  occ. eigenvalues --  -89.94550 -89.94550  -8.30780  -8.30779  -6.22928
 Alpha  occ. eigenvalues --   -6.22927  -6.22674  -6.22674  -6.22107  -6.22107
 Alpha  occ. eigenvalues --   -0.81529  -0.81106  -0.47417  -0.47329  -0.33513
 Alpha  occ. eigenvalues --   -0.33265  -0.31172
 Alpha virt. eigenvalues --   -0.21455   0.01931   0.03028   0.04377   0.04965
 Alpha virt. eigenvalues --    0.06520   0.06748   0.07377   0.07502   0.09259
 Alpha virt. eigenvalues --    0.13111   0.30787   0.30824   0.32657   0.35267

  Beta  occ. eigenvalues --  -89.94550 -89.94550  -8.30780  -8.30779  -6.22928
  Beta  occ. eigenvalues --   -6.22927  -6.22674  -6.22674  -6.22107  -6.22107
  Beta  occ. eigenvalues --   -0.81529  -0.81106  -0.47417  -0.47329  -0.33513
  Beta  occ. eigenvalues --   -0.33265  -0.31172
  Beta virt. eigenvalues --   -0.21455   0.01931   0.03028   0.04377   0.04965
  Beta virt. eigenvalues --    0.06520   0.06748   0.07377   0.07502   0.09259
  Beta virt. eigenvalues --    0.13111   0.30787   0.30824   0.32657   0.35267

 Mulliken charges and spin densities:
               1          2
     1  S   -0.083535   0.000000
     2  S   -0.083423   0.000000
     3  H    0.083475   0.000000
     4  H    0.083483   0.000000
 Sum of Mulliken charges =  -0.00000   0.00000

 Dipole moment (field-independent basis, Debye):
    X=             -0.0007    Y=             -0.7084    Z=              0.7152  Tot=              1.0067
 Quadrupole moment (field-independent basis, Debye-Ang):
   XX=            -25.4405   YY=            -28.0759   ZZ=            -28.1211
   XY=              2.8116   XZ=              2.7834   YZ=              2.3833

 Normal termination of Gaussian 16 at Mon Apr 21 21:13:17 2025.
