 Gaussian 16, Revision A.03,
 Gaussian 16:  ES64L-G16RevA.03 25-Dec-2016

 --------------------------------------------
 #p opt UM062X/6-311+G** nosymm int=superfine
 --------------------------------------------

 -------------------
 Title Card Required
 -------------------
 Symbolic Z-matrix:
 Charge =  0 Multiplicity = 1

 SCF Done:  E(UM062X) =  -110.495986306     A.U. after   10 cycles
 SCF Done:  E(UM062X) =  -110.504669759     A.U. after   10 cycles
 SCF Done:  E(UM062X) =  -110.504701406     A.U. after    9 cycles
 Optimization completed.
    -- Stationary point found.

                          Input orientation:
 ---------------------------------------------------------------------
 Center     Atomic      Atomic             Coordinates (Angstroms)
 Number     Number       Type             X           Y           Z
 ---------------------------------------------------------------------
      1          7           0       -0.840428    0.000000    0.000000
      2          7           0        0.840428    0.000000    0.000000
      3          1           0       -0.938132   -1.025360   -0.000000
      4          1           0        0.938132    1.025360   -0.000000
 ---------------------------------------------------------------------

 Alpha  occ. eigenvalues --  -14.86075 -14.86054  -1.00945  -0.84875  -0.51076
 Alpha  occ. eigenvalues --   -0.49308  -0.38760  -0.37954
 Alpha virt. eigenvalues --   -0.11366   0.03140   0.06013   0.08663   0.12000
 Alpha virt. eigenvalues --    0.13025   0.13540   0.15295   0.16600   0.18577
 Alpha virt. eigenvalues --    0.21997   0.26444   0.54487   0.57613   0.74845

  Beta  occ. eigenvalues --  -14.86075 -14.86054  -1.00945  -0.84875  -0.51076
  Beta  occ. eigenvalues --   -0.49308  -0.38760  -0.37954
  Beta virt. eigenvalues --   -0.11366   0.03140   0.06013   0.08663   0.12000
  Beta virt. eigenvalues --    0.13025   0.13540   0.15295   0.16600   0.18577
  Beta virt. eigenvalues --    0.21997   0.26444   0.54487   0.57613   0.74845

 Mulliken charges and spin densities:
               1          2
     1  N   -0.249847   0.000000
     2  N   -0.249847  -0.000000
     3  H    0.249847  -0.000000
     4  H    0.249847   0.000000
 Sum of Mulliken charges =  -0.00000  -0.00000

 Dipole moment (field-independent basis, Debye):
    X=              0.0000    Y=              0.0000    Z=             -0.0000  Tot=              0.0000
 Quadrupole moment (field-independent basis, Debye-Ang):
   XX=            -13.6838   YY=            -10.5818   ZZ=            -13.4171
   XY=              3.8641   XZ=             -0.0000   YZ=             -0.0000

 Normal termination of Gaussian 16 at Thu May 15 15:33:19 2025.
