 Gaussian 16, Revision A.03,
 Gaussian 16:  ES64L-G16RevA.03 25-Dec-2016

 --------------------------------------------
 #p opt UM062X/6-311+G** nosymm int=superfine
 --------------------------------------------

 -------------------
 Title Card Required
 -------------------
 Symbolic Z-matrix:
 Charge =  0 Multiplicity = 1

 SCF Done:  E(UM062X) =  -683.785400866     A.U. after    9 cycles
 SCF Done:  E(UM062X) =  -683.786148937     A.U. after    9 cycles
 SCF Done:  E(UM062X) =  -683.786154404     A.U. after    8 cycles
 Optimization completed.
    -- Stationary point found.

                          Input orientation:
 ---------------------------------------------------------------------
 Center     Atomic      Atomic             Coordinates (Angstroms)
 Number     Number       Type             X           Y           Z
 ---------------------------------------------------------------------
      1         15           0       -1.259490    0.000000    0.000000
      2         15           0        1.259490    0.000000    0.000000
      3          1           0       -1.269481   -1.420857   -0.000000
      4          1           0        1.269481    1.420857   -0.000000
 ---------------------------------------------------------------------

 Alpha  occ. eigenvalues --  -78.06795 -78.06795  -6.88850  -6.88847  -5.00332
 Alpha  occ. eigenvalues --   -5.00331  -5.00252  -5.00247  -5.00098  -5.00095
 Alpha  occ. eigenvalues --   -0.72216  -0.64652  -0.41264  -0.39895  -0.31739
 Alpha  occ. eigenvalues --   -0.28351
 Alpha virt. eigenvalues --   -0.11901  -0.03208   0.01820   0.03519   0.04160
 Alpha virt. eigenvalues --    0.04472   0.04818   0.06311   0.06890   0.08442
 Alpha virt. eigenvalues --    0.10119   0.12894   0.28485   0.28914   0.30746

  Beta  occ. eigenvalues --  -78.06795 -78.06795  -6.88850  -6.88847  -5.00332
  Beta  occ. eigenvalues --   -5.00331  -5.00252  -5.00247  -5.00098  -5.00095
  Beta  occ. eigenvalues --   -0.72216  -0.64652  -0.41264  -0.39895  -0.31739
  Beta  occ. eigenvalues --   -0.28351
  Beta virt. eigenvalues --   -0.11901  -0.03208   0.01820   0.03519   0.04160
  Beta virt. eigenvalues --    0.04472   0.04818   0.06311   0.06890   0.08442
  Beta virt. eigenvalues --    0.10119   0.12894   0.28485   0.28914   0.30746

 Mulliken charges and spin densities:
               1          2
     1  P    0.011131  -0.000000
     2  P    0.011131   0.000000
     3  H   -0.011131   0.000000
     4  H   -0.011131  -0.000000
 Sum of Mulliken charges =  -0.00000   0.00000

 Dipole moment (field-independent basis, Debye):
    X=              0.0000    Y=              0.0000    Z=             -0.0000  Tot=              0.0000
 Quadrupole moment (field-independent basis, Debye-Ang):
   XX=            -28.5835   YY=            -27.7908   ZZ=            -29.7488
   XY=              2.6010   XZ=             -0.0000   YZ=             -0.0000

 Normal termination of Gaussian 16 at Mon Apr 21 21:12:17 2025.
