 Gaussian 16, Revision A.03,
 Gaussian 16:  ES64L-G16RevA.03 25-Dec-2016

 --------------------------------------------
 #p opt UM062X/6-311+G** nosymm int=superfine
 --------------------------------------------

 -------------------
 Title Card Required
 -------------------
 Symbolic Z-matrix:
 Charge =  0 Multiplicity = 1

 SCF Done:  E(UM062X) =  -94.2496140529     A.U. after   12 cycles
 SCF Done:  E(UM062X) =  -94.2532182645     A.U. after   11 cycles
 SCF Done:  E(UM062X) =  -94.2544798782     A.U. after   11 cycles
 SCF Done:  E(UM062X) =  -94.2545808552     A.U. after    9 cycles
 SCF Done:  E(UM062X) =  -94.2550106496     A.U. after   18 cycles
 SCF Done:  E(UM062X) =  -94.2559819545     A.U. after   18 cycles
 SCF Done:  E(UM062X) =  -94.2568806701     A.U. after   23 cycles
 SCF Done:  E(UM062X) =  -94.2378017743     A.U. after   14 cycles
 SCF Done:  E(UM062X) =  -94.2572549493     A.U. after   22 cycles
 SCF Done:  E(UM062X) =  -94.2574823526     A.U. after   14 cycles
 SCF Done:  E(UM062X) =  -94.2579166819     A.U. after   28 cycles
 SCF Done:  E(UM062X) =  -94.2579963779     A.U. after   35 cycles
 SCF Done:  E(UM062X) =  -94.2580704444     A.U. after  100 cycles
 SCF Done:  E(UM062X) =  -94.2581334980     A.U. after   11 cycles
 SCF Done:  E(UM062X) =  -94.2581564862     A.U. after   61 cycles
 SCF Done:  E(UM062X) =  -94.2581768549     A.U. after   12 cycles
 SCF Done:  E(UM062X) =  -94.2582252053     A.U. after   14 cycles
 SCF Done:  E(UM062X) =  -94.2582796065     A.U. after   16 cycles
 SCF Done:  E(UM062X) =  -94.2582815503     A.U. after   11 cycles
 SCF Done:  E(UM062X) =  -94.2582814168     A.U. after   11 cycles
 Optimization completed.
    -- Stationary point found.

                          Input orientation:
 ---------------------------------------------------------------------
 Center     Atomic      Atomic             Coordinates (Angstroms)
 Number     Number       Type             X           Y           Z
 ---------------------------------------------------------------------
      1          6           0       -2.056637   -0.000000    0.000000
      2          7           0        2.056637    0.000000    0.000000
      3          1           0       -2.749271   -0.858067    0.099550
      4          1           0        1.015857   -0.000604    0.000285
      5          1           0       -2.748368    0.858692   -0.100577
 ---------------------------------------------------------------------

 Alpha  occ. eigenvalues --  -14.81756 -10.62479  -0.88120  -0.77208  -0.49262
 Alpha  occ. eigenvalues --   -0.45005  -0.33269  -0.32601
 Alpha virt. eigenvalues --   -0.11511  -0.09779   0.01251   0.05345   0.06045
 Alpha virt. eigenvalues --    0.07416   0.13481   0.13619   0.15333   0.16984
 Alpha virt. eigenvalues --    0.17931   0.18082   0.21002   0.43203   0.47695

  Beta  occ. eigenvalues --  -14.81756 -10.62479  -0.88120  -0.77208  -0.49262
  Beta  occ. eigenvalues --   -0.45005  -0.33269  -0.32601
  Beta virt. eigenvalues --   -0.11511  -0.09779   0.01251   0.05345   0.06045
  Beta virt. eigenvalues --    0.07416   0.13481   0.13619   0.15333   0.16984
  Beta virt. eigenvalues --    0.17931   0.18082   0.21002   0.43203   0.47695

 Mulliken charges and spin densities:
               1          2
     1  C   -0.291646   0.000000
     2  N   -0.238667   0.000000
     3  H    0.141028  -0.000000
     4  H    0.248270  -0.000000
     5  H    0.141016  -0.000000
 Sum of Mulliken charges =  -0.00000   0.00000

 Dipole moment (field-independent basis, Debye):
    X=             -4.0925    Y=             -0.0002    Z=             -0.0010  Tot=              4.0925
 Quadrupole moment (field-independent basis, Debye-Ang):
   XX=            -13.3880   YY=            -12.2962   ZZ=            -14.8396
   XY=             -0.0037   XZ=              0.0019   YZ=             -0.3064

 Normal termination of Gaussian 16 at Mon Apr 21 18:37:58 2025.
