 Gaussian 16, Revision A.03,
 Gaussian 16:  ES64L-G16RevA.03 25-Dec-2016

 --------------------------------------------
 #p opt UM062X/6-311+G** nosymm int=superfine
 --------------------------------------------

 -------------------
 Title Card Required
 -------------------
 Symbolic Z-matrix:
 Charge =  0 Multiplicity = 1

 SCF Done:  E(UM062X) =  -684.982941242     A.U. after   11 cycles
 SCF Done:  E(UM062X) =  -684.984933547     A.U. after   10 cycles
 SCF Done:  E(UM062X) =  -684.985847233     A.U. after   10 cycles
 SCF Done:  E(UM062X) =  -684.985915805     A.U. after    9 cycles
 SCF Done:  E(UM062X) =  -684.985946192     A.U. after   10 cycles
 SCF Done:  E(UM062X) =  -684.985962884     A.U. after   10 cycles
 SCF Done:  E(UM062X) =  -684.985988600     A.U. after   10 cycles
 SCF Done:  E(UM062X) =  -684.986032962     A.U. after   10 cycles
 SCF Done:  E(UM062X) =  -684.986087375     A.U. after   12 cycles
 SCF Done:  E(UM062X) =  -684.986116409     A.U. after   10 cycles
 SCF Done:  E(UM062X) =  -684.986158539     A.U. after    8 cycles
 SCF Done:  E(UM062X) =  -684.986155298     A.U. after   12 cycles
 SCF Done:  E(UM062X) =  -684.986171697     A.U. after   10 cycles
 SCF Done:  E(UM062X) =  -684.986168347     A.U. after   12 cycles
 SCF Done:  E(UM062X) =  -684.986176282     A.U. after   10 cycles
 SCF Done:  E(UM062X) =  -684.985961187     A.U. after   10 cycles
 SCF Done:  E(UM062X) =  -684.986180061     A.U. after    9 cycles
 SCF Done:  E(UM062X) =  -684.986181561     A.U. after    8 cycles
 SCF Done:  E(UM062X) =  -684.986182863     A.U. after    8 cycles
 SCF Done:  E(UM062X) =  -684.986182934     A.U. after    7 cycles
 Optimization completed.
    -- Stationary point found.

                          Input orientation:
 ---------------------------------------------------------------------
 Center     Atomic      Atomic             Coordinates (Angstroms)
 Number     Number       Type             X           Y           Z
 ---------------------------------------------------------------------
      1         15           0       -1.617217    0.000000    0.000000
      2         15           0        1.617217    0.000000    0.000000
      3          1           0        1.583867   -0.954391    1.048550
      4          1           0       -1.584899    1.013836    0.991373
      5          1           0        1.585019   -1.013801   -0.991418
      6          1           0       -1.583788    0.954317   -1.048626
 ---------------------------------------------------------------------

 Alpha  occ. eigenvalues --  -78.04628 -78.04628  -6.86971  -6.86971  -4.98519
 Alpha  occ. eigenvalues --   -4.98519  -4.98416  -4.98416  -4.98228  -4.98228
 Alpha  occ. eigenvalues --   -0.71737  -0.69765  -0.45231  -0.44235  -0.36373
 Alpha  occ. eigenvalues --   -0.35627  -0.27978
 Alpha virt. eigenvalues --   -0.09982   0.01575   0.03093   0.03328   0.04149
 Alpha virt. eigenvalues --    0.04733   0.05459   0.06147   0.06274   0.06741
 Alpha virt. eigenvalues --    0.08757   0.16319   0.18718   0.28199   0.28381

  Beta  occ. eigenvalues --  -78.04628 -78.04628  -6.86971  -6.86971  -4.98519
  Beta  occ. eigenvalues --   -4.98519  -4.98416  -4.98416  -4.98228  -4.98228
  Beta  occ. eigenvalues --   -0.71737  -0.69765  -0.45231  -0.44235  -0.36373
  Beta  occ. eigenvalues --   -0.35627  -0.27978
  Beta virt. eigenvalues --   -0.09982   0.01575   0.03093   0.03328   0.04149
  Beta virt. eigenvalues --    0.04733   0.05459   0.06147   0.06274   0.06741
  Beta virt. eigenvalues --    0.08757   0.16319   0.18718   0.28199   0.28381

 Mulliken charges and spin densities:
               1          2
     1  P   -0.037554   0.000000
     2  P   -0.037575  -0.000000
     3  H    0.018786   0.000000
     4  H    0.018779  -0.000000
     5  H    0.018777  -0.000000
     6  H    0.018787  -0.000000
 Sum of Mulliken charges =  -0.00000   0.00000

 Dipole moment (field-independent basis, Debye):
    X=              0.0000    Y=              0.0000    Z=             -0.0000  Tot=              0.0001
 Quadrupole moment (field-independent basis, Debye-Ang):
   XX=            -29.5891   YY=            -31.0990   ZZ=            -28.3190
   XY=             -3.6989   XZ=              0.1059   YZ=              0.0806

 Normal termination of Gaussian 16 at Mon Apr 21 20:51:41 2025.
