 Gaussian 16, Revision A.03,
 Gaussian 16:  ES64L-G16RevA.03 25-Dec-2016

 --------------------------------------------
 #p opt UM062X/6-311+G** nosymm int=superfine
 --------------------------------------------

 -------------------
 Title Card Required
 -------------------
 Symbolic Z-matrix:
 Charge =  0 Multiplicity = 1

 SCF Done:  E(UM062X) =  -83.1642943657     A.U. after   10 cycles
 SCF Done:  E(UM062X) =  -83.1694810791     A.U. after    9 cycles
 SCF Done:  E(UM062X) =  -83.1697288944     A.U. after    8 cycles
 SCF Done:  E(UM062X) =  -83.1697322180     A.U. after    7 cycles
 SCF Done:  E(UM062X) =  -83.1697336922     A.U. after    7 cycles
 Optimization completed.
    -- Stationary point found.

                          Input orientation:
 ---------------------------------------------------------------------
 Center     Atomic      Atomic             Coordinates (Angstroms)
 Number     Number       Type             X           Y           Z
 ---------------------------------------------------------------------
      1          5           0       -1.077429    0.000000    0.000000
      2          7           0        1.077429    0.000000    0.000000
      3          1           0        1.419216   -0.953638   -0.000002
      4          1           0       -1.233206   -0.592478    1.026189
      5          1           0        1.419004    0.476913   -0.825911
      6          1           0        1.418998    0.476906    0.825917
      7          1           0       -1.233173    1.184950    0.000010
      8          1           0       -1.233208   -0.592460   -1.026198
 ---------------------------------------------------------------------

 Alpha  occ. eigenvalues --  -14.78279  -7.00217  -1.00803  -0.58694  -0.58694
 Alpha  occ. eigenvalues --   -0.55565  -0.39051  -0.36224  -0.36224
 Alpha virt. eigenvalues --   -0.00400   0.03850   0.04667   0.04668   0.08351
 Alpha virt. eigenvalues --    0.11013   0.11013   0.11619   0.16041   0.16042
 Alpha virt. eigenvalues --    0.16676   0.20908   0.20909   0.23869   0.30721

  Beta  occ. eigenvalues --  -14.78279  -7.00217  -1.00803  -0.58694  -0.58694
  Beta  occ. eigenvalues --   -0.55565  -0.39051  -0.36224  -0.36224
  Beta virt. eigenvalues --   -0.00400   0.03850   0.04667   0.04668   0.08351
  Beta virt. eigenvalues --    0.11013   0.11013   0.11619   0.16041   0.16042
  Beta virt. eigenvalues --    0.16676   0.20908   0.20909   0.23869   0.30721

 Mulliken charges and spin densities:
               1          2
     1  B   -0.055008  -0.000000
     2  N   -0.686493   0.000000
     3  H    0.282967  -0.000000
     4  H   -0.035801  -0.000000
     5  H    0.282972  -0.000000
     6  H    0.282972  -0.000000
     7  H   -0.035808  -0.000000
     8  H   -0.035801  -0.000000
 Sum of Mulliken charges =  -0.00000  -0.00000

 Dipole moment (field-independent basis, Debye):
    X=              3.9942    Y=              0.0002    Z=              0.0000  Tot=              3.9942
 Quadrupole moment (field-independent basis, Debye-Ang):
   XX=            -14.4053   YY=            -15.9506   ZZ=            -15.9507
   XY=             -0.0001   XZ=             -0.0000   YZ=              0.0000

 Normal termination of Gaussian 16 at Mon Apr 21 17:36:11 2025.
