 Gaussian 16, Revision A.03,
 Gaussian 16:  ES64L-G16RevA.03 25-Dec-2016

 --------------------------------------------
 #p opt UM062X/6-311+G** nosymm int=superfine
 --------------------------------------------

 -------------------
 Title Card Required
 -------------------
 Symbolic Z-matrix:
 Charge =  0 Multiplicity = 1

 SCF Done:  E(UM062X) =  -381.190067701     A.U. after   11 cycles
 SCF Done:  E(UM062X) =  -381.190108450     A.U. after    8 cycles
 SCF Done:  E(UM062X) =  -381.190116463     A.U. after    8 cycles
 SCF Done:  E(UM062X) =  -381.190116576     A.U. after    8 cycles
 SCF Done:  E(UM062X) =  -381.190117110     A.U. after    8 cycles
 Optimization completed.
    -- Stationary point found.

                          Input orientation:
 ---------------------------------------------------------------------
 Center     Atomic      Atomic             Coordinates (Angstroms)
 Number     Number       Type             X           Y           Z
 ---------------------------------------------------------------------
      1          6           0       -0.855452    0.000000    0.000000
      2         15           0        0.855452    0.000000    0.000000
      3          1           0       -1.463519   -0.897117    0.000557
      4          1           0        1.014365   -1.412646    0.000461
      5          1           0       -1.385390    0.946394   -0.000415
 ---------------------------------------------------------------------

 Alpha  occ. eigenvalues --  -78.02566 -10.56836  -6.85163  -4.96708  -4.96662
 Alpha  occ. eigenvalues --   -4.96438  -0.81496  -0.64136  -0.51668  -0.43488
 Alpha  occ. eigenvalues --   -0.33963  -0.32009
 Alpha virt. eigenvalues --   -0.04188   0.01043   0.03066   0.04094   0.04859
 Alpha virt. eigenvalues --    0.06215   0.07971   0.09876   0.11082   0.15455
 Alpha virt. eigenvalues --    0.16129   0.19471   0.21437   0.31038   0.32761

  Beta  occ. eigenvalues --  -78.02566 -10.56836  -6.85163  -4.96708  -4.96662
  Beta  occ. eigenvalues --   -4.96438  -0.81496  -0.64136  -0.51668  -0.43488
  Beta  occ. eigenvalues --   -0.33963  -0.32009
  Beta virt. eigenvalues --   -0.04188   0.01043   0.03066   0.04094   0.04859
  Beta virt. eigenvalues --    0.06215   0.07971   0.09876   0.11082   0.15455
  Beta virt. eigenvalues --    0.16129   0.19471   0.21437   0.31038   0.32761

 Mulliken charges and spin densities:
               1          2
     1  C   -0.431428   0.000000
     2  P    0.112343  -0.000000
     3  H    0.180421  -0.000000
     4  H   -0.042409   0.000000
     5  H    0.181073  -0.000000
 Sum of Mulliken charges =  -0.00000   0.00000

 Dipole moment (field-independent basis, Debye):
    X=             -0.6686    Y=             -0.5795    Z=              0.0004  Tot=              0.8847
 Quadrupole moment (field-independent basis, Debye-Ang):
   XX=            -20.0440   YY=            -19.8909   ZZ=            -22.2217
   XY=             -1.1783   XZ=              0.0004   YZ=             -0.0011

 Normal termination of Gaussian 16 at Mon Apr 21 19:11:04 2025.
