 Gaussian 16, Revision A.03,
 Gaussian 16:  ES64L-G16RevA.03 25-Dec-2016

 --------------------------------------------
 #p opt UM062X/6-311+G** nosymm int=superfine
 --------------------------------------------

 -------------------
 Title Card Required
 -------------------
 Symbolic Z-matrix:
 Charge =  0 Multiplicity = 1

 SCF Done:  E(UM062X) =  -582.358444717     A.U. after   10 cycles
 SCF Done:  E(UM062X) =  -582.360768730     A.U. after    9 cycles
 SCF Done:  E(UM062X) =  -582.361488772     A.U. after    9 cycles
 SCF Done:  E(UM062X) =  -582.361489270     A.U. after    8 cycles
 Optimization completed.
    -- Stationary point found.

                          Input orientation:
 ---------------------------------------------------------------------
 Center     Atomic      Atomic             Coordinates (Angstroms)
 Number     Number       Type             X           Y           Z
 ---------------------------------------------------------------------
      1         14           0       -2.569819    0.000000    0.000000
      2         14           0        2.569819    0.000000    0.000000
      3          1           0        2.967717   -1.421510   -0.000054
      4          1           0       -2.967483   -0.710733    1.231156
      5          1           0        2.967624    0.710909   -1.231008
      6          1           0        2.967492    0.710786    1.231122
      7          1           0       -2.967720    1.421509   -0.000110
      8          1           0       -2.967630   -0.710964   -1.230975
 ---------------------------------------------------------------------

 Alpha  occ. eigenvalues --  -67.01900 -67.01900  -5.56831  -5.56831  -3.88067
 Alpha  occ. eigenvalues --   -3.88067  -3.87817  -3.87817  -3.87817  -3.87817
 Alpha  occ. eigenvalues --   -0.61198  -0.61023  -0.42211  -0.42210  -0.42186
 Alpha  occ. eigenvalues --   -0.42185  -0.20855
 Alpha virt. eigenvalues --   -0.12079   0.01932   0.02983   0.02983   0.03181
 Alpha virt. eigenvalues --    0.04900   0.04900   0.06376   0.06639   0.07625
 Alpha virt. eigenvalues --    0.07625   0.08323   0.08324   0.10888   0.15233

  Beta  occ. eigenvalues --  -67.01900 -67.01900  -5.56831  -5.56831  -3.88067
  Beta  occ. eigenvalues --   -3.88067  -3.87817  -3.87817  -3.87817  -3.87817
  Beta  occ. eigenvalues --   -0.61198  -0.61023  -0.42211  -0.42210  -0.42186
  Beta  occ. eigenvalues --   -0.42185  -0.20855
  Beta virt. eigenvalues --   -0.12079   0.01932   0.02983   0.02983   0.03181
  Beta virt. eigenvalues --    0.04900   0.04900   0.06376   0.06639   0.07625
  Beta virt. eigenvalues --    0.07625   0.08323   0.08324   0.10888   0.15233

 Mulliken charges and spin densities:
               1          2
     1  Si   0.262725   0.000003
     2  Si   0.262726  -0.000003
     3  H   -0.087573  -0.000000
     4  H   -0.087576   0.000000
     5  H   -0.087576  -0.000000
     6  H   -0.087576  -0.000000
     7  H   -0.087573   0.000000
     8  H   -0.087576   0.000000
 Sum of Mulliken charges =  -0.00000  -0.00000

 Dipole moment (field-independent basis, Debye):
    X=              0.0000    Y=             -0.0000    Z=              0.0000  Tot=              0.0000
 Quadrupole moment (field-independent basis, Debye-Ang):
   XX=            -27.8229   YY=            -32.2349   ZZ=            -32.2351
   XY=             -0.0008   XZ=              0.0000   YZ=              0.0000

 Normal termination of Gaussian 16 at Mon Apr 21 20:21:15 2025.
