 Gaussian 16, Revision A.03,
 Gaussian 16:  ES64L-G16RevA.03 25-Dec-2016

 --------------------------------------------
 #p opt UM062X/6-311+G** nosymm int=superfine
 --------------------------------------------

 -------------------
 Title Card Required
 -------------------
 Symbolic Z-matrix:
 Charge =  0 Multiplicity = 1

 SCF Done:  E(UM062X) =  -684.903861541     A.U. after   11 cycles
 SCF Done:  E(UM062X) =  -684.904363589     A.U. after   10 cycles
 SCF Done:  E(UM062X) =  -684.904586374     A.U. after   12 cycles
 SCF Done:  E(UM062X) =  -684.905046812     A.U. after   12 cycles
 SCF Done:  E(UM062X) =  -684.905276192     A.U. after   12 cycles
 SCF Done:  E(UM062X) =  -684.905371555     A.U. after   12 cycles
 SCF Done:  E(UM062X) =  -684.905391588     A.U. after   11 cycles
 SCF Done:  E(UM062X) =  -684.905399846     A.U. after   11 cycles
 SCF Done:  E(UM062X) =  -684.905404519     A.U. after   12 cycles
 SCF Done:  E(UM062X) =  -684.905427386     A.U. after   12 cycles
 SCF Done:  E(UM062X) =  -684.905566654     A.U. after   11 cycles
 SCF Done:  E(UM062X) =  -684.905559213     A.U. after   10 cycles
 SCF Done:  E(UM062X) =  -684.905568991     A.U. after   11 cycles
 SCF Done:  E(UM062X) =  -684.905569400     A.U. after    8 cycles
 SCF Done:  E(UM062X) =  -684.905569463     A.U. after   10 cycles
 SCF Done:  E(UM062X) =  -684.905569464     A.U. after   10 cycles
 SCF Done:  E(UM062X) =  -684.905569575     A.U. after   10 cycles
 SCF Done:  E(UM062X) =  -684.905569595     A.U. after    8 cycles
 SCF Done:  E(UM062X) =  -684.905569617     A.U. after    9 cycles
 SCF Done:  E(UM062X) =  -684.905569628     A.U. after    8 cycles
 Optimization completed.
    -- Stationary point found.

                          Input orientation:
 ---------------------------------------------------------------------
 Center     Atomic      Atomic             Coordinates (Angstroms)
 Number     Number       Type             X           Y           Z
 ---------------------------------------------------------------------
      1         15           0       -2.467217    0.000000    0.000000
      2         15           0        2.467217    0.000000    0.000000
      3          1           0        2.345598   -1.041318    0.956015
      4          1           0       -2.351669    1.099398    0.889575
      5          1           0        2.355853   -0.915171   -1.078776
      6          1           0       -2.353761    0.846313   -1.133260
 ---------------------------------------------------------------------

 Alpha  occ. eigenvalues --  -78.04915 -78.04915  -6.87341  -6.87341  -4.98884
 Alpha  occ. eigenvalues --   -4.98883  -4.98766  -4.98766  -4.98584  -4.98584
 Alpha  occ. eigenvalues --   -0.71170  -0.70978  -0.45134  -0.45078  -0.36269
 Alpha  occ. eigenvalues --   -0.36214  -0.23523
 Alpha virt. eigenvalues --   -0.16008   0.01500   0.02822   0.03188   0.04000
 Alpha virt. eigenvalues --    0.04824   0.05813   0.06005   0.06076   0.06085
 Alpha virt. eigenvalues --    0.07833   0.12491   0.18105   0.29202   0.29868

  Beta  occ. eigenvalues --  -78.04915 -78.04915  -6.87341  -6.87341  -4.98884
  Beta  occ. eigenvalues --   -4.98883  -4.98766  -4.98766  -4.98584  -4.98584
  Beta  occ. eigenvalues --   -0.71170  -0.70978  -0.45134  -0.45078  -0.36269
  Beta  occ. eigenvalues --   -0.36214  -0.23523
  Beta virt. eigenvalues --   -0.16008   0.01500   0.02822   0.03188   0.04000
  Beta virt. eigenvalues --    0.04824   0.05813   0.06005   0.06076   0.06085
  Beta virt. eigenvalues --    0.07833   0.12491   0.18105   0.29202   0.29868

 Mulliken charges and spin densities:
               1          2
     1  P    0.011460  -0.000000
     2  P    0.011632   0.000000
     3  H   -0.005343  -0.000000
     4  H   -0.005376   0.000000
     5  H   -0.006196  -0.000000
     6  H   -0.006178   0.000000
 Sum of Mulliken charges =  -0.00000   0.00000

 Dipole moment (field-independent basis, Debye):
    X=             -0.0011    Y=             -0.0056    Z=             -0.1672  Tot=              0.1672
 Quadrupole moment (field-independent basis, Debye-Ang):
   XX=            -29.3016   YY=            -31.2310   ZZ=            -28.5412
   XY=             -4.7753   XZ=              0.1438   YZ=              0.0837

 Normal termination of Gaussian 16 at Mon Apr 21 21:04:04 2025.
