 Gaussian 16, Revision A.03,
 Gaussian 16:  ES64L-G16RevA.03 25-Dec-2016

 ---------------------------------------------------
 #p UM062X/6-311+G** force int=superfine pop=saveNBO
 ---------------------------------------------------

 -------------------
 Title Card Required
 -------------------
 Symbolic Z-matrix:
 Charge =  0 Multiplicity = 1

                         Standard orientation:
 ---------------------------------------------------------------------
 Center     Atomic      Atomic             Coordinates (Angstroms)
 Number     Number       Type             X           Y           Z
 ---------------------------------------------------------------------
      1          6           0        0.000000    0.000000   -1.784094
      2          8           0        0.000000    0.000000    1.338070
 ---------------------------------------------------------------------

 SCF Done:  E(UM062X) =  -112.666629449     A.U. after   24 cycles

 The electronic state is 1-SG.
 Alpha  occ. eigenvalues --  -19.69081 -10.86934  -0.98140  -0.74101  -0.34251
 Alpha  occ. eigenvalues --   -0.32182  -0.32182
 Alpha virt. eigenvalues --   -0.22464  -0.22464  -0.20431   0.02068   0.05789
 Alpha virt. eigenvalues --    0.05789   0.07100   0.19822   0.22035   0.22035
 Alpha virt. eigenvalues --    0.27712   0.49337   0.49337   0.51008   0.59720

  Beta  occ. eigenvalues --  -19.69081 -10.86934  -0.98140  -0.74101  -0.34251
  Beta  occ. eigenvalues --   -0.32182  -0.32182
  Beta virt. eigenvalues --   -0.22464  -0.22464  -0.20431   0.02068   0.05789
  Beta virt. eigenvalues --    0.05789   0.07100   0.19822   0.22035   0.22035
  Beta virt. eigenvalues --    0.27712   0.49337   0.49337   0.51008   0.59720

 Mulliken charges and spin densities:
               1          2
     1  C    0.366478   0.000000
     2  O   -0.366478  -0.000000
 Sum of Mulliken charges =  -0.00000  -0.00000

 Dipole moment (field-independent basis, Debye):
    X=              0.0000    Y=              0.0000    Z=             -5.4677  Tot=              5.4677
 Quadrupole moment (field-independent basis, Debye-Ang):
   XX=            -12.1758   YY=            -12.1758   ZZ=             -8.2680
   XY=              0.0000   XZ=              0.0000   YZ=              0.0000

 Summary of Natural Population Analysis:

                                       Natural Population
                Natural  -----------------------------------------------
    Atom  No    Charge         Core      Valence    Rydberg      Total
 -----------------------------------------------------------------------
      C    1    0.22893      1.00000     1.77091    0.00017     2.77107
      O    2   -0.22893      1.00000     3.22880    0.00013     4.22893
 =======================================================================
   * Total *   -0.00000      2.00000     4.99971    0.00030     7.00000

 Normal termination of Gaussian 16 at Mon Apr 21 19:31:07 2025.
