 Gaussian 16, Revision A.03,
 Gaussian 16:  ES64L-G16RevA.03 25-Dec-2016

 --------------------------------------------
 #p opt UM062X/6-311+G** nosymm int=superfine
 --------------------------------------------

 -------------------
 Title Card Required
 -------------------
 Symbolic Z-matrix:
 Charge =  0 Multiplicity = 1

 SCF Done:  E(UM062X) =  -93.0066669342     A.U. after   11 cycles
 SCF Done:  E(UM062X) =  -93.0075071277     A.U. after   10 cycles
 SCF Done:  E(UM062X) =  -93.0075076835     A.U. after    9 cycles
 Optimization completed.
    -- Stationary point found.

                          Input orientation:
 ---------------------------------------------------------------------
 Center     Atomic      Atomic             Coordinates (Angstroms)
 Number     Number       Type             X           Y           Z
 ---------------------------------------------------------------------
      1          6           0       -0.997395    0.000000    0.000000
      2          7           0        0.997395    0.000000    0.000000
      3          1           0       -2.101495   -0.000000   -0.000000
 ---------------------------------------------------------------------

 Alpha  occ. eigenvalues --  -14.89610 -10.73372  -0.84513  -0.75916  -0.44971
 Alpha  occ. eigenvalues --   -0.32417  -0.32417
 Alpha virt. eigenvalues --   -0.12608  -0.12608  -0.06815   0.01658   0.06489
 Alpha virt. eigenvalues --    0.07326   0.07326   0.13432   0.16887   0.16887
 Alpha virt. eigenvalues --    0.20524   0.26889   0.47073   0.54606   0.54606

  Beta  occ. eigenvalues --  -14.89610 -10.73372  -0.84513  -0.75916  -0.44971
  Beta  occ. eigenvalues --   -0.32417  -0.32417
  Beta virt. eigenvalues --   -0.12608  -0.12608  -0.06815   0.01658   0.06489
  Beta virt. eigenvalues --    0.07326   0.07326   0.13432   0.16887   0.16887
  Beta virt. eigenvalues --    0.20524   0.26889   0.47073   0.54606   0.54606

 Mulliken charges and spin densities:
               1          2
     1  C   -0.179124   0.000000
     2  N   -0.054776  -0.000000
     3  H    0.233900  -0.000000
 Sum of Mulliken charges =  -0.00000   0.00000

 Dipole moment (field-independent basis, Debye):
    X=             -3.2859    Y=              0.0000    Z=             -0.0000  Tot=              3.2859
 Quadrupole moment (field-independent basis, Debye-Ang):
   XX=             -6.9786   YY=            -14.0385   ZZ=            -14.0385
   XY=             -0.0000   XZ=              0.0000   YZ=             -0.0000

 Normal termination of Gaussian 16 at Mon Apr 21 18:38:01 2025.
