 Gaussian 16, Revision A.03,
 Gaussian 16:  ES64L-G16RevA.03 25-Dec-2016

 ---------------------------------------------------
 #p UM062X/6-311+G** force int=superfine pop=saveNBO
 ---------------------------------------------------

 -------------------
 Title Card Required
 -------------------
 Symbolic Z-matrix:
 Charge =  0 Multiplicity = 1

                         Standard orientation:
 ---------------------------------------------------------------------
 Center     Atomic      Atomic             Coordinates (Angstroms)
 Number     Number       Type             X           Y           Z
 ---------------------------------------------------------------------
      1          8           0        0.000000    0.000000   -2.960091
      2         16           0        0.000000    0.000000    1.480045
 ---------------------------------------------------------------------

 SCF Done:  E(UM062X) =  -473.003103177     A.U. after   17 cycles

 Unable to determine electronic state:  partially filled degenerate orbitals.
 Alpha  occ. eigenvalues --  -89.96677 -19.77276  -8.32738  -6.25538  -6.23938
 Alpha  occ. eigenvalues --   -6.23929  -1.06959  -0.76845  -0.45847  -0.45838
 Alpha  occ. eigenvalues --   -0.34102  -0.34040
 Alpha virt. eigenvalues --   -0.19859  -0.19275   0.03564   0.04806   0.05589
 Alpha virt. eigenvalues --    0.05696   0.14073   0.17431   0.17559   0.21011
 Alpha virt. eigenvalues --    0.33933   0.35128   0.35740   0.59319   0.77795

  Beta  occ. eigenvalues --  -89.96677 -19.77276  -8.32738  -6.25538  -6.23938
  Beta  occ. eigenvalues --   -6.23929  -1.06959  -0.76845  -0.45847  -0.45838
  Beta  occ. eigenvalues --   -0.34102  -0.34040
  Beta virt. eigenvalues --   -0.19859  -0.19275   0.03564   0.04806   0.05589
  Beta virt. eigenvalues --    0.05696   0.14073   0.17431   0.17559   0.21011
  Beta virt. eigenvalues --    0.33933   0.35128   0.35740   0.59319   0.77795

 Mulliken charges and spin densities:
               1          2
     1  O   -0.003445   0.000000
     2  S    0.003445   0.000000
 Sum of Mulliken charges =  -0.00000   0.00000

 Dipole moment (field-independent basis, Debye):
    X=              0.0000    Y=              0.0000    Z=              0.1324  Tot=              0.1324
 Quadrupole moment (field-independent basis, Debye-Ang):
   XX=            -15.6837   YY=            -21.1598   ZZ=            -18.9648
   XY=              0.0000   XZ=              0.0000   YZ=              0.0000

 Summary of Natural Population Analysis:

                                       Natural Population
                Natural  -----------------------------------------------
    Atom  No    Charge         Core      Valence    Rydberg      Total
 -----------------------------------------------------------------------
      O    1   -0.00196      1.00000     3.00182    0.00014     4.00196
      S    2    0.00196      4.99999     2.99762    0.00043     7.99804
 =======================================================================
   * Total *   -0.00000      5.99999     5.99944    0.00057    12.00000

 Normal termination of Gaussian 16 at Mon Apr 21 19:58:26 2025.
