 Gaussian 16, Revision A.03,
 Gaussian 16:  ES64L-G16RevA.03 25-Dec-2016

 ---------------------------------------------------------
 #p opt UM062X/6-311+G** nosymm int=superfine SCF=NoVarAcc
 ---------------------------------------------------------

 -------------------
 Title Card Required
 -------------------
 Symbolic Z-matrix:
 Charge =  1 Multiplicity = 2

 SCF Done:  E(UM062X) =  -77.9032266880     A.U. after    9 cycles
 SCF Done:  E(UM062X) =  -77.9039055311     A.U. after    9 cycles
 SCF Done:  E(UM062X) =  -77.9042575905     A.U. after   11 cycles
 SCF Done:  E(UM062X) =  -77.9042584440     A.U. after   10 cycles
 Optimization completed.
    -- Stationary point found.

                          Input orientation:
 ---------------------------------------------------------------------
 Center     Atomic      Atomic             Coordinates (Angstroms)
 Number     Number       Type             X           Y           Z
 ---------------------------------------------------------------------
      1          6           0       -1.456027    0.000000    0.000000
      2          6           0        1.456027    0.000000    0.000000
      3          1           0       -1.837482   -1.016716    0.000001
      4          1           0       -1.837466    1.016722    0.000001
      5          1           0        1.837482    1.016716   -0.000001
      6          1           0        1.837466   -1.016722   -0.000001
 ---------------------------------------------------------------------

 Alpha  occ. eigenvalues --  -10.91832 -10.91827  -1.02340  -1.00897  -0.79274
 Alpha  occ. eigenvalues --   -0.78795  -0.55994  -0.50523
 Alpha virt. eigenvalues --   -0.39591  -0.36259  -0.13159  -0.10597  -0.10486
 Alpha virt. eigenvalues --   -0.07625  -0.07480  -0.06330  -0.04694  -0.04500
 Alpha virt. eigenvalues --   -0.03041   0.01594   0.01778   0.09304   0.20611

  Beta  occ. eigenvalues --  -10.91567 -10.91564  -0.99552  -0.98376  -0.78911
  Beta  occ. eigenvalues --   -0.78446  -0.54033
  Beta virt. eigenvalues --   -0.34075  -0.31615  -0.29457  -0.14192  -0.10891
  Beta virt. eigenvalues --   -0.10846  -0.07437  -0.07347  -0.06369  -0.04247
  Beta virt. eigenvalues --   -0.03856  -0.03530  -0.00052   0.02005   0.10227

 Mulliken charges and spin densities:
               1          2
     1  C   -0.063196   0.540934
     2  C   -0.063195   0.540929
     3  H    0.281598  -0.020466
     4  H    0.281598  -0.020466
     5  H    0.281598  -0.020466
     6  H    0.281598  -0.020466
 Sum of Mulliken charges =   1.00000   1.00000

 Dipole moment (field-independent basis, Debye):
    X=              0.0000    Y=             -0.0000    Z=             -0.0000  Tot=              0.0000
 Quadrupole moment (field-independent basis, Debye-Ang):
   XX=              5.0674   YY=             -7.7652   ZZ=            -13.0018
   XY=              0.0000   XZ=             -0.0000   YZ=              0.0000

 Normal termination of Gaussian 16 at Tue Dec  3 13:25:17 2024.
