 Gaussian 16, Revision A.03,
 Gaussian 16:  ES64L-G16RevA.03 25-Dec-2016

 --------------------------------------------
 #p opt UM062X/6-311+G** nosymm int=superfine
 --------------------------------------------

 -------------------
 Title Card Required
 -------------------
 Symbolic Z-matrix:
 Charge =  0 Multiplicity = 1

 SCF Done:  E(UM062X) =  -95.5701387239     A.U. after   18 cycles
 SCF Done:  E(UM062X) =  -95.5847954093     A.U. after   13 cycles
 SCF Done:  E(UM062X) =  -95.5948582852     A.U. after   14 cycles
 SCF Done:  E(UM062X) =  -95.5952257262     A.U. after   13 cycles
 SCF Done:  E(UM062X) =  -95.5956692706     A.U. after   13 cycles
 SCF Done:  E(UM062X) =  -95.5960641927     A.U. after   13 cycles
 SCF Done:  E(UM062X) =  -95.5962099356     A.U. after   13 cycles
 SCF Done:  E(UM062X) =  -95.5962612845     A.U. after   12 cycles
 SCF Done:  E(UM062X) =  -95.5962665197     A.U. after   11 cycles
 SCF Done:  E(UM062X) =  -95.5962668425     A.U. after   10 cycles
 SCF Done:  E(UM062X) =  -95.5962679775     A.U. after   11 cycles
 SCF Done:  E(UM062X) =  -95.5962687265     A.U. after   11 cycles
 SCF Done:  E(UM062X) =  -95.5962691758     A.U. after   11 cycles
 SCF Done:  E(UM062X) =  -95.5962692561     A.U. after    9 cycles
 Optimization completed.
    -- Stationary point found.

                          Input orientation:
 ---------------------------------------------------------------------
 Center     Atomic      Atomic             Coordinates (Angstroms)
 Number     Number       Type             X           Y           Z
 ---------------------------------------------------------------------
      1          6           0       -2.105542    0.000000    0.000000
      2          7           0        2.105542    0.000000    0.000000
      3          1           0        2.049776   -1.014590    0.141869
      4          1           0       -2.073609    1.079957    0.014877
      5          1           0        2.050593    0.372249    0.954489
      6          1           0       -2.072943   -0.525451   -0.943602
      7          1           0       -2.226065   -0.550553    0.922073
 ---------------------------------------------------------------------

 Alpha  occ. eigenvalues --  -14.74670 -10.62168  -0.90138  -0.81213  -0.53392
 Alpha  occ. eigenvalues --   -0.53262  -0.50661  -0.35879  -0.23992
 Alpha virt. eigenvalues --   -0.15467   0.01744   0.04525   0.04791   0.06957
 Alpha virt. eigenvalues --    0.09949   0.12946   0.15763   0.16632   0.16706
 Alpha virt. eigenvalues --    0.17331   0.20359   0.21737   0.26787   0.40994

  Beta  occ. eigenvalues --  -14.74670 -10.62168  -0.90138  -0.81213  -0.53392
  Beta  occ. eigenvalues --   -0.53262  -0.50661  -0.35879  -0.23992
  Beta virt. eigenvalues --   -0.15467   0.01744   0.04525   0.04791   0.06957
  Beta virt. eigenvalues --    0.09949   0.12946   0.15763   0.16632   0.16706
  Beta virt. eigenvalues --    0.17331   0.20359   0.21737   0.26787   0.40994

 Mulliken charges and spin densities:
               1          2
     1  C   -0.421188   0.000003
     2  N   -0.579817  -0.000003
     3  H    0.209679   0.000000
     4  H    0.196646  -0.000000
     5  H    0.209685   0.000000
     6  H    0.196734  -0.000000
     7  H    0.188261  -0.000000
 Sum of Mulliken charges =  -0.00000  -0.00000

 Dipole moment (field-independent basis, Debye):
    X=             -3.6857    Y=             -1.0051    Z=              1.7156  Tot=              4.1879
 Quadrupole moment (field-independent basis, Debye-Ang):
   XX=            -16.0249   YY=            -13.4616   ZZ=            -14.2766
   XY=             -2.1216   XZ=              3.6249   YZ=              0.7277

 Normal termination of Gaussian 16 at Mon Apr 21 18:19:58 2025.
