 Gaussian 16, Revision A.03,
 Gaussian 16:  ES64L-G16RevA.03 25-Dec-2016

 ---------------------------------------------------
 #p UM062X/6-311+G** force int=superfine pop=saveNBO
 ---------------------------------------------------

 -------------------
 Title Card Required
 -------------------
 Symbolic Z-matrix:
 Charge =  0 Multiplicity = 1

                         Standard orientation:
 ---------------------------------------------------------------------
 Center     Atomic      Atomic             Coordinates (Angstroms)
 Number     Number       Type             X           Y           Z
 ---------------------------------------------------------------------
      1         16           0        0.000000    0.000000    2.200200
      2         16           0        0.000000    0.000000   -2.200200
 ---------------------------------------------------------------------

 SCF Done:  E(UM062X) =  -796.014908634     A.U. after    9 cycles

 Unable to determine electronic state:  partially filled degenerate orbitals.
 Alpha  occ. eigenvalues --  -89.98519 -89.98519  -8.34352  -8.34352  -6.26377
 Alpha  occ. eigenvalues --   -6.26377  -6.26360  -6.26360  -6.25539  -6.25539
 Alpha  occ. eigenvalues --   -0.77889  -0.77457  -0.34724  -0.34487  -0.31519
 Alpha  occ. eigenvalues --   -0.30660
 Alpha virt. eigenvalues --   -0.24100  -0.23183   0.02876   0.03929   0.04634
 Alpha virt. eigenvalues --    0.05046   0.06961   0.06962   0.07405   0.11872
 Alpha virt. eigenvalues --    0.30219   0.32960   0.33791   0.35292   0.36145

  Beta  occ. eigenvalues --  -89.98519 -89.98519  -8.34352  -8.34352  -6.26377
  Beta  occ. eigenvalues --   -6.26377  -6.26360  -6.26360  -6.25539  -6.25539
  Beta  occ. eigenvalues --   -0.77889  -0.77457  -0.34724  -0.34487  -0.31519
  Beta  occ. eigenvalues --   -0.30660
  Beta virt. eigenvalues --   -0.24100  -0.23183   0.02876   0.03929   0.04634
  Beta virt. eigenvalues --    0.05046   0.06961   0.06962   0.07405   0.11872
  Beta virt. eigenvalues --    0.30219   0.32960   0.33791   0.35292   0.36145

 Mulliken charges and spin densities:
               1          2
     1  S   -0.000000  -0.000000
     2  S   -0.000000  -0.000000
 Sum of Mulliken charges =  -0.00000  -0.00000

 Dipole moment (field-independent basis, Debye):
    X=             -0.0000    Y=              0.0000    Z=              0.0000  Tot=              0.0000
 Quadrupole moment (field-independent basis, Debye-Ang):
   XX=            -30.4094   YY=            -25.3461   ZZ=            -22.9272
   XY=              0.0000   XZ=             -0.0000   YZ=              0.0000

 Summary of Natural Population Analysis:

                                       Natural Population
                Natural  -----------------------------------------------
    Atom  No    Charge         Core      Valence    Rydberg      Total
 -----------------------------------------------------------------------
      S    1   -0.00000      5.00000     2.99943    0.00057     8.00000
      S    2   -0.00000      5.00000     2.99943    0.00057     8.00000
 =======================================================================
   * Total *   -0.00000      9.99999     5.99887    0.00114    16.00000

 Normal termination of Gaussian 16 at Mon Apr 21 20:08:43 2025.
