 Gaussian 16, Revision A.03,
 Gaussian 16:  ES64L-G16RevA.03 25-Dec-2016

 ---------------------------------------
 #p UM062X/6-311+G** force int=superfine
 ---------------------------------------

 -------------------
 Title Card Required
 -------------------
 Symbolic Z-matrix:
 Charge =  1 Multiplicity = 2

                         Standard orientation:
 ---------------------------------------------------------------------
 Center     Atomic      Atomic             Coordinates (Angstroms)
 Number     Number       Type             X           Y           Z
 ---------------------------------------------------------------------
      1          6           0       -0.028104    0.194006   -1.369917
      2          6           0        0.028090   -0.194001    1.369918
      3          1           0       -0.374415   -1.198084    1.300275
      4          1           0        0.638151   -0.638591   -1.564669
      5          1           0       -0.637943    0.638620    1.565327
      6          1           0        1.100561   -0.049041    1.431758
      7          1           0        0.374249    1.198152   -1.300295
      8          1           0       -1.100521    0.048916   -1.432399
 ---------------------------------------------------------------------

 SCF Done:  E(UM062X) =  -79.3479185650     A.U. after    9 cycles

 The electronic state is 2-A.
 Alpha  occ. eigenvalues --  -10.85392 -10.85389  -1.05115  -1.02635  -0.75469
 Alpha  occ. eigenvalues --   -0.75469  -0.74203  -0.74203  -0.54745
 Alpha virt. eigenvalues --   -0.33826  -0.14654  -0.10443  -0.10443  -0.10071
 Alpha virt. eigenvalues --   -0.06207  -0.06206  -0.05829  -0.03087  -0.03035
 Alpha virt. eigenvalues --   -0.03032   0.01477   0.01479   0.05404   0.07482

  Beta  occ. eigenvalues --  -10.85197 -10.85197  -1.02030  -1.00246  -0.74838
  Beta  occ. eigenvalues --   -0.74837  -0.73685  -0.73684
  Beta virt. eigenvalues --   -0.33196  -0.24450  -0.15487  -0.11119  -0.11118
  Beta virt. eigenvalues --   -0.09755  -0.06516  -0.06516  -0.05835  -0.03096
  Beta virt. eigenvalues --   -0.03093  -0.02297   0.01832   0.01834   0.06069

 Mulliken charges and spin densities:
               1          2
     1  C   -0.277522   0.572898
     2  C   -0.277522   0.572898
     3  H    0.259207  -0.024287
     4  H    0.259147  -0.024296
     5  H    0.259174  -0.024300
     6  H    0.259141  -0.024310
     7  H    0.259208  -0.024287
     8  H    0.259166  -0.024315
 Sum of Mulliken charges =   1.00000   1.00000

 Dipole moment (field-independent basis, Debye):
    X=              0.0000    Y=             -0.0000    Z=             -0.0000  Tot=              0.0000
 Quadrupole moment (field-independent basis, Debye-Ang):
   XX=            -10.9823   YY=            -10.8092   ZZ=             -2.2029
   XY=             -0.0254   XZ=              0.1797   YZ=             -1.2452

 Normal termination of Gaussian 16 at Wed Nov 13 13:02:29 2024.
