 Gaussian 16, Revision A.03,
 Gaussian 16:  ES64L-G16RevA.03 25-Dec-2016

 --------------------------------------------
 #p opt UM062X/6-311+G** nosymm int=superfine
 --------------------------------------------

 -------------------
 Title Card Required
 -------------------
 Symbolic Z-matrix:
 Charge =  0 Multiplicity = 1

 SCF Done:  E(UM062X) =  -95.5791610592     A.U. after   17 cycles
 SCF Done:  E(UM062X) =  -95.5943302965     A.U. after   13 cycles
 SCF Done:  E(UM062X) =  -95.6051077141     A.U. after   14 cycles
 SCF Done:  E(UM062X) =  -95.6055755097     A.U. after   12 cycles
 SCF Done:  E(UM062X) =  -95.6060893037     A.U. after   13 cycles
 SCF Done:  E(UM062X) =  -95.6063529047     A.U. after   13 cycles
 SCF Done:  E(UM062X) =  -95.6064246554     A.U. after   12 cycles
 SCF Done:  E(UM062X) =  -95.6064404740     A.U. after   11 cycles
 SCF Done:  E(UM062X) =  -95.6064418647     A.U. after   11 cycles
 SCF Done:  E(UM062X) =  -95.6064426126     A.U. after   11 cycles
 SCF Done:  E(UM062X) =  -95.6064440949     A.U. after    9 cycles
 SCF Done:  E(UM062X) =  -95.6064454774     A.U. after   11 cycles
 SCF Done:  E(UM062X) =  -95.6064458600     A.U. after    9 cycles
 Optimization completed.
    -- Stationary point found.

                          Input orientation:
 ---------------------------------------------------------------------
 Center     Atomic      Atomic             Coordinates (Angstroms)
 Number     Number       Type             X           Y           Z
 ---------------------------------------------------------------------
      1          6           0       -1.930542    0.000000    0.000000
      2          7           0        1.930542    0.000000    0.000000
      3          1           0        1.873185   -1.014957    0.138496
      4          1           0       -1.910300    1.080229    0.011338
      5          1           0        1.873889    0.368807    0.955714
      6          1           0       -1.910831   -0.526396   -0.943371
      7          1           0       -2.052404   -0.548511    0.923142
 ---------------------------------------------------------------------

 Alpha  occ. eigenvalues --  -14.74778 -10.62142  -0.90163  -0.81068  -0.53254
 Alpha  occ. eigenvalues --   -0.53093  -0.50672  -0.35915  -0.24600
 Alpha virt. eigenvalues --   -0.14691   0.01749   0.04589   0.04909   0.07069
 Alpha virt. eigenvalues --    0.09928   0.13017   0.15840   0.16732   0.16782
 Alpha virt. eigenvalues --    0.17909   0.20463   0.22097   0.26691   0.41063

  Beta  occ. eigenvalues --  -14.74778 -10.62142  -0.90163  -0.81068  -0.53254
  Beta  occ. eigenvalues --   -0.53093  -0.50672  -0.35915  -0.24600
  Beta virt. eigenvalues --   -0.14691   0.01749   0.04589   0.04909   0.07069
  Beta virt. eigenvalues --    0.09928   0.13017   0.15840   0.16732   0.16782
  Beta virt. eigenvalues --    0.17909   0.20463   0.22097   0.26691   0.41063

 Mulliken charges and spin densities:
               1          2
     1  C   -0.429028  -0.000000
     2  N   -0.578029   0.000000
     3  H    0.209587  -0.000000
     4  H    0.199344   0.000000
     5  H    0.209592  -0.000000
     6  H    0.199356   0.000000
     7  H    0.189178   0.000000
 Sum of Mulliken charges =  -0.00000   0.00000

 Dipole moment (field-independent basis, Debye):
    X=             -3.4724    Y=             -1.0035    Z=              1.6996  Tot=              3.9942
 Quadrupole moment (field-independent basis, Debye-Ang):
   XX=            -15.8402   YY=            -13.4594   ZZ=            -14.2620
   XY=             -1.9651   XZ=              3.3314   YZ=              0.7282

 Normal termination of Gaussian 16 at Mon Apr 21 18:17:08 2025.
