 Gaussian 16, Revision A.03,
 Gaussian 16:  ES64L-G16RevA.03 25-Dec-2016

 --------------------------------------------
 #p opt UM062X/6-311+G** nosymm int=superfine
 --------------------------------------------

 -------------------
 Title Card Required
 -------------------
 Symbolic Z-matrix:
 Charge =  0 Multiplicity = 1

 SCF Done:  E(UM062X) =  -83.1511357616     A.U. after   10 cycles
 SCF Done:  E(UM062X) =  -83.1601164169     A.U. after    9 cycles
 SCF Done:  E(UM062X) =  -83.1607540248     A.U. after    9 cycles
 SCF Done:  E(UM062X) =  -83.1607553979     A.U. after    7 cycles
 SCF Done:  E(UM062X) =  -83.1607560248     A.U. after    7 cycles
 Optimization completed.
    -- Stationary point found.

                          Input orientation:
 ---------------------------------------------------------------------
 Center     Atomic      Atomic             Coordinates (Angstroms)
 Number     Number       Type             X           Y           Z
 ---------------------------------------------------------------------
      1          5           0       -1.202429    0.000000    0.000000
      2          7           0        1.202429    0.000000    0.000000
      3          1           0        1.551681   -0.950811    0.000000
      4          1           0       -1.300978   -0.593577    1.028083
      5          1           0        1.551458    0.475505   -0.823467
      6          1           0        1.551448    0.475501    0.823474
      7          1           0       -1.300969    1.187135    0.000012
      8          1           0       -1.300983   -0.593557   -1.028095
 ---------------------------------------------------------------------

 Alpha  occ. eigenvalues --  -14.76365  -7.01541  -0.99073  -0.57006  -0.57006
 Alpha  occ. eigenvalues --   -0.55520  -0.37570  -0.37381  -0.37381
 Alpha virt. eigenvalues --   -0.00054   0.02957   0.04769   0.04769   0.08008
 Alpha virt. eigenvalues --    0.09472   0.11064   0.11064   0.16571   0.16572
 Alpha virt. eigenvalues --    0.17559   0.20644   0.20644   0.23453   0.30288

  Beta  occ. eigenvalues --  -14.76365  -7.01541  -0.99073  -0.57006  -0.57006
  Beta  occ. eigenvalues --   -0.55520  -0.37570  -0.37381  -0.37381
  Beta virt. eigenvalues --   -0.00054   0.02957   0.04769   0.04769   0.08008
  Beta virt. eigenvalues --    0.09472   0.11064   0.11064   0.16571   0.16572
  Beta virt. eigenvalues --    0.17559   0.20644   0.20644   0.23453   0.30288

 Mulliken charges and spin densities:
               1          2
     1  B   -0.005134  -0.000000
     2  N   -0.730824   0.000000
     3  H    0.271184  -0.000000
     4  H   -0.025865  -0.000000
     5  H    0.271187  -0.000000
     6  H    0.271187  -0.000000
     7  H   -0.025871  -0.000000
     8  H   -0.025865   0.000000
 Sum of Mulliken charges =  -0.00000   0.00000

 Dipole moment (field-independent basis, Debye):
    X=              3.2823    Y=              0.0002    Z=              0.0000  Tot=              3.2823
 Quadrupole moment (field-independent basis, Debye-Ang):
   XX=            -13.5752   YY=            -15.8654   ZZ=            -15.8656
   XY=             -0.0001   XZ=             -0.0000   YZ=              0.0000

 Normal termination of Gaussian 16 at Mon Apr 21 17:36:46 2025.
