 Gaussian 16, Revision A.03,
 Gaussian 16:  ES64L-G16RevA.03 25-Dec-2016

 --------------------------------------------
 #p opt UM062X/6-311+G** nosymm int=superfine
 --------------------------------------------

 -------------------
 Title Card Required
 -------------------
 Symbolic Z-matrix:
 Charge =  1 Multiplicity = 2

 SCF Done:  E(UM062X) =  -79.3156615663     A.U. after   10 cycles
 SCF Done:  E(UM062X) =  -79.3169919831     A.U. after    9 cycles
 SCF Done:  E(UM062X) =  -79.3170040665     A.U. after    9 cycles
 Optimization completed.
    -- Stationary point found.

                          Input orientation:
 ---------------------------------------------------------------------
 Center     Atomic      Atomic             Coordinates (Angstroms)
 Number     Number       Type             X           Y           Z
 ---------------------------------------------------------------------
      1          6           0       -2.025874    0.000000    0.000000
      2          6           0        2.025874    0.000000    0.000000
      3          1           0        2.051706   -0.937520    0.542618
      4          1           0       -2.049906   -0.938617   -0.540797
      5          1           0        2.050932    0.938711    0.540589
      6          1           0        2.049887   -0.001169   -1.083265
      7          1           0       -2.051761    0.937626   -0.542433
      8          1           0       -2.050857    0.000947    1.083244
 ---------------------------------------------------------------------

 Alpha  occ. eigenvalues --  -10.83378 -10.83377  -1.01955  -1.01660  -0.73024
 Alpha  occ. eigenvalues --   -0.73024  -0.72930  -0.72929  -0.47133
 Alpha virt. eigenvalues --   -0.37686  -0.12647  -0.10133  -0.09333  -0.09333
 Alpha virt. eigenvalues --   -0.06212  -0.06212  -0.04391  -0.02843   0.00093
 Alpha virt. eigenvalues --    0.00096   0.01404   0.01406   0.02572   0.08832

  Beta  occ. eigenvalues --  -10.83157 -10.83156  -0.99298  -0.99122  -0.72497
  Beta  occ. eigenvalues --   -0.72497  -0.72387  -0.72386
  Beta virt. eigenvalues --   -0.32385  -0.26667  -0.16797  -0.10762  -0.10761
  Beta virt. eigenvalues --   -0.10230  -0.06192  -0.06191  -0.05383  -0.01886
  Beta virt. eigenvalues --   -0.00109  -0.00106   0.01661   0.01663   0.02363

 Mulliken charges and spin densities:
               1          2
     1  C   -0.246974   0.557269
     2  C   -0.246973   0.557269
     3  H    0.249008  -0.019091
     4  H    0.248970  -0.019091
     5  H    0.248991  -0.019093
     6  H    0.248975  -0.019085
     7  H    0.249009  -0.019091
     8  H    0.248995  -0.019086
 Sum of Mulliken charges =   1.00000   1.00000

 Dipole moment (field-independent basis, Debye):
    X=              0.0000    Y=             -0.0000    Z=             -0.0001  Tot=              0.0001
 Quadrupole moment (field-independent basis, Debye-Ang):
   XX=              8.2663   YY=            -11.1172   ZZ=            -11.1173
   XY=             -0.0019   XZ=              0.0012   YZ=              0.0000

 Normal termination of Gaussian 16 at Sat Nov 16 16:07:50 2024.
