 Gaussian 16, Revision A.03,
 Gaussian 16:  ES64L-G16RevA.03 25-Dec-2016

 -------------------------------------------------------------------
 #p opt UM062X/6-311+G** nosymm int=superfine SCF=NoVarAcc SCF=tight
 -------------------------------------------------------------------

 -------------------
 Title Card Required
 -------------------
 Symbolic Z-matrix:
 Charge =  1 Multiplicity = 2

 SCF Done:  E(UM062X) =  -77.8889971798     A.U. after   11 cycles
 SCF Done:  E(UM062X) =  -77.8929696327     A.U. after   10 cycles
 SCF Done:  E(UM062X) =  -77.8957736530     A.U. after   10 cycles
 SCF Done:  E(UM062X) =  -77.8957780863     A.U. after    8 cycles
 Optimization completed.
    -- Stationary point found.

                          Input orientation:
 ---------------------------------------------------------------------
 Center     Atomic      Atomic             Coordinates (Angstroms)
 Number     Number       Type             X           Y           Z
 ---------------------------------------------------------------------
      1          6           0       -6.606027    0.000000    0.000000
      2          6           0        6.606027    0.000000    0.000000
      3          1           0       -7.169073   -0.941415   -0.000000
      4          1           0       -7.169008    0.941454   -0.000000
      5          1           0        7.169073    0.941415   -0.000000
      6          1           0        7.169008   -0.941454   -0.000000
 ---------------------------------------------------------------------

 Alpha  occ. eigenvalues --  -10.84784 -10.84784  -0.96396  -0.96396  -0.71030
 Alpha  occ. eigenvalues --   -0.71030  -0.53779  -0.53779
 Alpha virt. eigenvalues --   -0.28069  -0.28069  -0.08918  -0.08918  -0.04593
 Alpha virt. eigenvalues --   -0.04592  -0.02803  -0.02803  -0.02644  -0.02639
 Alpha virt. eigenvalues --    0.03476   0.03476   0.04164   0.04165   0.30544

  Beta  occ. eigenvalues --  -10.84057 -10.84057  -0.94268  -0.94264  -0.70029
  Beta  occ. eigenvalues --   -0.70029  -0.39275
  Beta virt. eigenvalues --   -0.37015  -0.26479  -0.26478  -0.09220  -0.09218
  Beta virt. eigenvalues --   -0.05102  -0.05102  -0.03292  -0.03292  -0.02936
  Beta virt. eigenvalues --   -0.02930   0.03533   0.03533   0.04642   0.04645

 Mulliken charges and spin densities:
               1          2
     1  C    0.041846   0.486227
     2  C    0.041846   0.486227
     3  H    0.229077   0.006887
     4  H    0.229077   0.006887
     5  H    0.229077   0.006887
     6  H    0.229077   0.006887
 Sum of Mulliken charges =   1.00000   1.00000

 Dipole moment (field-independent basis, Debye):
    X=              0.0000    Y=              0.0000    Z=             -0.0000  Tot=              0.0000
 Quadrupole moment (field-independent basis, Debye-Ang):
   XX=            240.6966   YY=             -9.5120   ZZ=            -10.6531
   XY=             -0.0006   XZ=             -0.0000   YZ=             -0.0000

 Normal termination of Gaussian 16 at Tue Dec  3 15:47:40 2024.
