 Gaussian 16, Revision A.03,
 Gaussian 16:  ES64L-G16RevA.03 25-Dec-2016

 --------------------------------------------
 #p opt UM062X/6-311+G** nosymm int=superfine
 --------------------------------------------

 -------------------
 Title Card Required
 -------------------
 Symbolic Z-matrix:
 Charge =  0 Multiplicity = 1

 SCF Done:  E(UM062X) =  -92.8420073973     A.U. after   13 cycles
 SCF Done:  E(UM062X) =  -92.8439847945     A.U. after   11 cycles
 SCF Done:  E(UM062X) =  -92.8439958650     A.U. after    8 cycles
 Optimization completed.
    -- Stationary point found.

                          Input orientation:
 ---------------------------------------------------------------------
 Center     Atomic      Atomic             Coordinates (Angstroms)
 Number     Number       Type             X           Y           Z
 ---------------------------------------------------------------------
      1          6           0       -1.572395    0.000000    0.000000
      2          7           0        1.572395    0.000000    0.000000
      3          1           0       -2.698085   -0.000000    0.000000
 ---------------------------------------------------------------------

 Alpha  occ. eigenvalues --  -14.82900 -10.75979  -0.79887  -0.77215  -0.44974
 Alpha  occ. eigenvalues --   -0.27357  -0.27357
 Alpha virt. eigenvalues --   -0.17408  -0.17408  -0.08626   0.00196   0.06705
 Alpha virt. eigenvalues --    0.06705   0.07660   0.12930   0.16753   0.17213
 Alpha virt. eigenvalues --    0.17213   0.24488   0.42522   0.52305   0.52305

  Beta  occ. eigenvalues --  -14.82900 -10.75979  -0.79887  -0.77215  -0.44974
  Beta  occ. eigenvalues --   -0.27357  -0.27357
  Beta virt. eigenvalues --   -0.17408  -0.17408  -0.08626   0.00196   0.06705
  Beta virt. eigenvalues --    0.06705   0.07660   0.12930   0.16753   0.17213
  Beta virt. eigenvalues --    0.17213   0.24488   0.42522   0.52305   0.52305

 Mulliken charges and spin densities:
               1          2
     1  C    0.042193   0.000000
     2  N   -0.222630  -0.000000
     3  H    0.180437  -0.000000
 Sum of Mulliken charges =  -0.00000  -0.00000

 Dipole moment (field-independent basis, Debye):
    X=             -5.3664    Y=             -0.0000    Z=              0.0000  Tot=              5.3664
 Quadrupole moment (field-independent basis, Debye-Ang):
   XX=             -5.1044   YY=            -14.3076   ZZ=            -14.3076
   XY=              0.0000   XZ=             -0.0000   YZ=             -0.0000

 Normal termination of Gaussian 16 at Mon Apr 21 18:39:48 2025.
