 Gaussian 16, Revision A.03,
 Gaussian 16:  ES64L-G16RevA.03 25-Dec-2016

 --------------------------------------------
 #p opt UM062X/6-311+G** nosymm int=superfine
 --------------------------------------------

 -------------------
 Title Card Required
 -------------------
 Symbolic Z-matrix:
 Charge =  0 Multiplicity = 1

 SCF Done:  E(UM062X) =  -76.3142045884     A.U. after   10 cycles
 SCF Done:  E(UM062X) =  -76.5323051654     A.U. after    9 cycles
 SCF Done:  E(UM062X) =  -76.6437142064     A.U. after   10 cycles
 SCF Done:  E(UM062X) =  -76.6437392451     A.U. after    7 cycles
 Optimization completed.
    -- Stationary point found.

                          Input orientation:
 ---------------------------------------------------------------------
 Center     Atomic      Atomic             Coordinates (Angstroms)
 Number     Number       Type             X           Y           Z
 ---------------------------------------------------------------------
      1          6           0       -0.406991    0.000000    0.000000
      2          6           0        0.406991    0.000000    0.000000
      3          1           0       -1.463028   -0.000000    0.000000
      4          1           0        1.463026    0.000000    0.000000
 ---------------------------------------------------------------------

 Alpha  occ. eigenvalues --  -10.49937 -10.43141  -0.88118  -0.58449  -0.54791
 Alpha  occ. eigenvalues --   -0.45980  -0.45980
 Alpha virt. eigenvalues --    0.02963   0.03752   0.06785   0.06785   0.08370
 Alpha virt. eigenvalues --    0.08370   0.09925   0.17118   0.23478   0.25237
 Alpha virt. eigenvalues --    0.25855   0.25855   0.44475   0.49809   0.51327

  Beta  occ. eigenvalues --  -10.49937 -10.43141  -0.88118  -0.58449  -0.54791
  Beta  occ. eigenvalues --   -0.45980  -0.45980
  Beta virt. eigenvalues --    0.02963   0.03752   0.06785   0.06785   0.08370
  Beta virt. eigenvalues --    0.08370   0.09925   0.17118   0.23478   0.25237
  Beta virt. eigenvalues --    0.25855   0.25855   0.44475   0.49809   0.51327

 Mulliken charges and spin densities:
               1          2
     1  C   -0.095337  -0.000000
     2  C   -0.095336   0.000000
     3  H    0.095337   0.000000
     4  H    0.095336  -0.000000
 Sum of Mulliken charges =  -0.00000  -0.00000

 Dipole moment (field-independent basis, Debye):
    X=             -0.0000    Y=             -0.0000    Z=              0.0000  Tot=              0.0000
 Quadrupole moment (field-independent basis, Debye-Ang):
   XX=             -7.9904   YY=            -11.6581   ZZ=            -11.6581
   XY=              0.0000   XZ=             -0.0000   YZ=              0.0000

 Normal termination of Gaussian 16 at Tue Dec  3 19:54:04 2024.
