 Gaussian 16, Revision A.03,
 Gaussian 16:  ES64L-G16RevA.03 25-Dec-2016

 --------------------------------------------
 #p opt UM062X/6-311+G** nosymm int=superfine
 --------------------------------------------

 -------------------
 Title Card Required
 -------------------
 Symbolic Z-matrix:
 Charge = -1 Multiplicity = 2

 SCF Done:  E(UM062X) =  -53.1953126321     A.U. after   12 cycles
 SCF Done:  E(UM062X) =  -53.2000970120     A.U. after   11 cycles
 SCF Done:  E(UM062X) =  -53.2011551760     A.U. after   10 cycles
 SCF Done:  E(UM062X) =  -53.2011667427     A.U. after    8 cycles
 Optimization completed.
    -- Stationary point found.

                          Input orientation:
 ---------------------------------------------------------------------
 Center     Atomic      Atomic             Coordinates (Angstroms)
 Number     Number       Type             X           Y           Z
 ---------------------------------------------------------------------
      1          5           0       -2.290672    0.000000    0.000000
      2          5           0        2.290672    0.000000    0.000000
      3          1           0        2.342654   -1.197052   -0.000015
      4          1           0       -2.342491   -0.598520    1.036684
      5          1           0        2.342661    0.598538   -1.036666
      6          1           0        2.342422    0.598506    1.036695
      7          1           0       -2.342663    1.197051   -0.000001
      8          1           0       -2.342583   -0.598525   -1.036677
 ---------------------------------------------------------------------

 Alpha  occ. eigenvalues --   -6.85275  -6.85275  -0.40526  -0.40247  -0.22412
 Alpha  occ. eigenvalues --   -0.22412  -0.22299  -0.22299   0.01412
 Alpha virt. eigenvalues --    0.10193   0.16459   0.17541   0.17541   0.18065
 Alpha virt. eigenvalues --    0.18065   0.18411   0.23296   0.24037   0.32731
 Alpha virt. eigenvalues --    0.32732   0.33623   0.33624   0.34757   0.38502

  Beta  occ. eigenvalues --   -6.85238  -6.85238  -0.38868  -0.38676  -0.22265
  Beta  occ. eigenvalues --   -0.22265  -0.22129  -0.22129
  Beta virt. eigenvalues --    0.06619   0.12863   0.13008   0.14165   0.14166
  Beta virt. eigenvalues --    0.17494   0.17494   0.19807   0.22373   0.24645
  Beta virt. eigenvalues --    0.31678   0.31679   0.32368   0.32668   0.32669

 Mulliken charges and spin densities:
               1          2
     1  B   -0.361895   0.546975
     2  B   -0.361895   0.546974
     3  H   -0.045998  -0.015612
     4  H   -0.046052  -0.015681
     5  H   -0.046058  -0.015682
     6  H   -0.046049  -0.015681
     7  H   -0.045998  -0.015612
     8  H   -0.046055  -0.015682
 Sum of Mulliken charges =  -1.00000   1.00000

 Dipole moment (field-independent basis, Debye):
    X=              0.0000    Y=             -0.0000    Z=              0.0001  Tot=              0.0001
 Quadrupole moment (field-independent basis, Debye-Ang):
   XX=            -48.8287   YY=            -24.3684   ZZ=            -24.3687
   XY=             -0.0000   XZ=              0.0000   YZ=              0.0000

 Normal termination of Gaussian 16 at Mon Apr 21 16:55:38 2025.
