 Gaussian 16, Revision A.03,
 Gaussian 16:  ES64L-G16RevA.03 25-Dec-2016

 ---------------------------------------------------
 #p UM062X/6-311+G** force int=superfine pop=saveNBO
 ---------------------------------------------------

 -------------------
 Title Card Required
 -------------------
 Symbolic Z-matrix:
 Charge =  0 Multiplicity = 1

                         Standard orientation:
 ---------------------------------------------------------------------
 Center     Atomic      Atomic             Coordinates (Angstroms)
 Number     Number       Type             X           Y           Z
 ---------------------------------------------------------------------
      1         15           0        0.000000    0.000000    1.188495
      2         15           0        0.000000    0.000000   -1.188495
 ---------------------------------------------------------------------

 SCF Done:  E(UM062X) =  -682.567285678     A.U. after    9 cycles

 The electronic state is 1-SGG.
 Alpha  occ. eigenvalues --  -78.09562 -78.09562  -6.91262  -6.91256  -5.02651
 Alpha  occ. eigenvalues --   -5.02651  -5.02649  -5.02649  -5.02492  -5.02477
 Alpha  occ. eigenvalues --   -0.70079  -0.57690  -0.33788  -0.29674  -0.29674
 Alpha virt. eigenvalues --   -0.11524  -0.11524  -0.01373   0.02525   0.04402
 Alpha virt. eigenvalues --    0.04402   0.04806   0.05906   0.06832   0.06832
 Alpha virt. eigenvalues --    0.12482   0.28573   0.30778   0.31240   0.31240

  Beta  occ. eigenvalues --  -78.09562 -78.09562  -6.91262  -6.91256  -5.02651
  Beta  occ. eigenvalues --   -5.02651  -5.02649  -5.02649  -5.02492  -5.02477
  Beta  occ. eigenvalues --   -0.70079  -0.57690  -0.33788  -0.29674  -0.29674
  Beta virt. eigenvalues --   -0.11524  -0.11524  -0.01373   0.02525   0.04402
  Beta virt. eigenvalues --    0.04402   0.04806   0.05906   0.06832   0.06832
  Beta virt. eigenvalues --    0.12482   0.28573   0.30778   0.31240   0.31240

 Mulliken charges and spin densities:
               1          2
     1  P   -0.000000   0.000000
     2  P   -0.000000   0.000000
 Sum of Mulliken charges =  -0.00000   0.00000

 Dipole moment (field-independent basis, Debye):
    X=             -0.0000    Y=             -0.0000    Z=             -0.0000  Tot=              0.0000
 Quadrupole moment (field-independent basis, Debye-Ang):
   XX=            -28.0370   YY=            -28.0370   ZZ=            -25.7691
   XY=              0.0000   XZ=             -0.0000   YZ=              0.0000

 Summary of Natural Population Analysis:

                                       Natural Population
                Natural  -----------------------------------------------
    Atom  No    Charge         Core      Valence    Rydberg      Total
 -----------------------------------------------------------------------
      P    1    0.00000      4.99990     2.49201    0.00808     7.50000
      P    2   -0.00000      4.99990     2.49201    0.00808     7.50000
 =======================================================================
   * Total *   -0.00000      9.99981     4.98403    0.01617    15.00000

 Normal termination of Gaussian 16 at Mon Apr 21 21:21:11 2025.
