 Gaussian 16, Revision A.03,
 Gaussian 16:  ES64L-G16RevA.03 25-Dec-2016

 --------------------------------------------
 #p opt UM062X/6-311+G** nosymm int=superfine
 --------------------------------------------

 -------------------
 Title Card Required
 -------------------
 Symbolic Z-matrix:
 Charge =  1 Multiplicity = 2

 SCF Done:  E(UM062X) =  -79.3121747510     A.U. after   10 cycles
 SCF Done:  E(UM062X) =  -79.3140278312     A.U. after    9 cycles
 SCF Done:  E(UM062X) =  -79.3140540639     A.U. after    9 cycles
 Optimization completed.
    -- Stationary point found.

                          Input orientation:
 ---------------------------------------------------------------------
 Center     Atomic      Atomic             Coordinates (Angstroms)
 Number     Number       Type             X           Y           Z
 ---------------------------------------------------------------------
      1          6           0       -2.197075    0.000000    0.000000
      2          6           0        2.197075    0.000000    0.000000
      3          1           0        2.219092   -0.937345    0.542523
      4          1           0       -2.217096   -0.938438   -0.540699
      5          1           0        2.218230    0.938533    0.540494
      6          1           0        2.217136   -0.001172   -1.083059
      7          1           0       -2.219153    0.937454   -0.542331
      8          1           0       -2.218209    0.000952    1.083041
 ---------------------------------------------------------------------

 Alpha  occ. eigenvalues --  -10.82831 -10.82831  -1.01459  -1.01265  -0.72573
 Alpha  occ. eigenvalues --   -0.72572  -0.72526  -0.72525  -0.45979
 Alpha virt. eigenvalues --   -0.37888  -0.12294  -0.10023  -0.09002  -0.09002
 Alpha virt. eigenvalues --   -0.06190  -0.06189  -0.04451  -0.02521   0.00641
 Alpha virt. eigenvalues --    0.00644   0.01550   0.01552   0.02261   0.09184

  Beta  occ. eigenvalues --  -10.82604 -10.82604  -0.98792  -0.98704  -0.72032
  Beta  occ. eigenvalues --   -0.72031  -0.71978  -0.71977
  Beta virt. eigenvalues --   -0.31255  -0.26683  -0.17099  -0.10248  -0.10180
  Beta virt. eigenvalues --   -0.10178  -0.06122  -0.06122  -0.05785  -0.01549
  Beta virt. eigenvalues --    0.00581   0.00585   0.01796   0.01798   0.02261

 Mulliken charges and spin densities:
               1          2
     1  C   -0.234678   0.559498
     2  C   -0.234678   0.559498
     3  H    0.244909  -0.019833
     4  H    0.244873  -0.019833
     5  H    0.244892  -0.019836
     6  H    0.244876  -0.019830
     7  H    0.244910  -0.019833
     8  H    0.244894  -0.019833
 Sum of Mulliken charges =   1.00000   1.00000

 Dipole moment (field-independent basis, Debye):
    X=             -0.0000    Y=             -0.0000    Z=             -0.0000  Tot=              0.0000
 Quadrupole moment (field-independent basis, Debye-Ang):
   XX=             11.4766   YY=            -11.1224   ZZ=            -11.1224
   XY=             -0.0022   XZ=              0.0012   YZ=              0.0000

 Normal termination of Gaussian 16 at Sat Nov 16 16:11:57 2024.
