 Gaussian 16, Revision A.03,
 Gaussian 16:  ES64L-G16RevA.03 25-Dec-2016

 --------------------------------------------
 #p opt UM062X/6-311+G** nosymm int=superfine
 --------------------------------------------

 -------------------
 Title Card Required
 -------------------
 Symbolic Z-matrix:
 Charge =  0 Multiplicity = 1

 SCF Done:  E(UM062X) =  -380.926604152     A.U. after   18 cycles
 SCF Done:  E(UM062X) =  -380.929647030     A.U. after   17 cycles
 SCF Done:  E(UM062X) =  -380.930631739     A.U. after   18 cycles
 SCF Done:  E(UM062X) =  -380.930654130     A.U. after   15 cycles
 SCF Done:  E(UM062X) =  -380.930807321     A.U. after   18 cycles
 SCF Done:  E(UM062X) =  -380.930876881     A.U. after   28 cycles
 SCF Done:  E(UM062X) =  -380.930903192     A.U. after   15 cycles
 SCF Done:  E(UM062X) =  -380.930911277     A.U. after   17 cycles
 SCF Done:  E(UM062X) =  -380.930911607     A.U. after   14 cycles
 SCF Done:  E(UM062X) =  -380.930911989     A.U. after   20 cycles
 SCF Done:  E(UM062X) =  -380.930912938     A.U. after   16 cycles
 SCF Done:  E(UM062X) =  -380.930908503     A.U. after   18 cycles
 SCF Done:  E(UM062X) =  -380.930917243     A.U. after   18 cycles
 SCF Done:  E(UM062X) =  -380.930853563     A.U. after   23 cycles
 SCF Done:  E(UM062X) =  -380.930916716     A.U. after   14 cycles
 SCF Done:  E(UM062X) =  -380.930918631     A.U. after   11 cycles
 SCF Done:  E(UM062X) =  -380.930919770     A.U. after   20 cycles
 SCF Done:  E(UM062X) =  -380.930921085     A.U. after   15 cycles
 SCF Done:  E(UM062X) =  -380.930922297     A.U. after   17 cycles
 SCF Done:  E(UM062X) =  -380.930922583     A.U. after   14 cycles
 Optimization completed.
    -- Stationary point found.

                          Input orientation:
 ---------------------------------------------------------------------
 Center     Atomic      Atomic             Coordinates (Angstroms)
 Number     Number       Type             X           Y           Z
 ---------------------------------------------------------------------
      1          6           0       -2.255452    0.000000    0.000000
      2         15           0        2.255452    0.000000    0.000000
      3          1           0       -2.987169   -0.831329    0.031154
      4          1           0        1.935319   -1.382337   -0.078147
      5          1           0       -2.910451    0.893095   -0.027521
 ---------------------------------------------------------------------

 Alpha  occ. eigenvalues --  -78.04759 -10.61854  -6.87031  -4.99046  -4.98269
 Alpha  occ. eigenvalues --   -4.97806  -0.76603  -0.65890  -0.48610  -0.38547
 Alpha  occ. eigenvalues --   -0.32517  -0.24674
 Alpha virt. eigenvalues --   -0.11629  -0.09136   0.01510   0.03618   0.04559
 Alpha virt. eigenvalues --    0.05941   0.06903   0.07156   0.08763   0.10176
 Alpha virt. eigenvalues --    0.13406   0.17410   0.18968   0.31245   0.33291

  Beta  occ. eigenvalues --  -78.04759 -10.61854  -6.87031  -4.99046  -4.98269
  Beta  occ. eigenvalues --   -4.97806  -0.76603  -0.65890  -0.48610  -0.38547
  Beta  occ. eigenvalues --   -0.32517  -0.24674
  Beta virt. eigenvalues --   -0.11629  -0.09136   0.01510   0.03618   0.04559
  Beta virt. eigenvalues --    0.05941   0.06903   0.07156   0.08763   0.10176
  Beta virt. eigenvalues --    0.13406   0.17410   0.18968   0.31245   0.33291

 Mulliken charges and spin densities:
               1          2
     1  C   -0.278349   0.000000
     2  P    0.040932  -0.000000
     3  H    0.135079   0.000000
     4  H   -0.032611  -0.000000
     5  H    0.134948  -0.000000
 Sum of Mulliken charges =   0.00000   0.00000

 Dipole moment (field-independent basis, Debye):
    X=             -2.4434    Y=             -0.5797    Z=             -0.0324  Tot=              2.5114
 Quadrupole moment (field-independent basis, Debye-Ang):
   XX=            -11.9284   YY=            -21.3104   ZZ=            -25.2008
   XY=             -2.3308   XZ=             -0.1176   YZ=              0.2822

 Normal termination of Gaussian 16 at Mon Apr 21 19:25:28 2025.
