 Gaussian 16, Revision A.03,
 Gaussian 16:  ES64L-G16RevA.03 25-Dec-2016

 --------------------------------------------
 #p opt UM062X/6-311+G** nosymm int=superfine
 --------------------------------------------

 -------------------
 Title Card Required
 -------------------
 Symbolic Z-matrix:
 Charge =  1 Multiplicity = 2

 SCF Done:  E(UM062X) =  -1615.51296172     A.U. after   29 cycles
 SCF Done:  E(UM062X) =  -1615.53398847     A.U. after   26 cycles
 SCF Done:  E(UM062X) =  -1615.53861521     A.U. after   24 cycles
 SCF Done:  E(UM062X) =  -1615.53860374     A.U. after   26 cycles
 SCF Done:  E(UM062X) =  -1615.53700844     A.U. after   30 cycles
 SCF Done:  E(UM062X) =  -1615.53824292     A.U. after   28 cycles
 SCF Done:  E(UM062X) =  -1615.53871931     A.U. after   22 cycles
 SCF Done:  E(UM062X) =  -1615.53874025     A.U. after   23 cycles
 SCF Done:  E(UM062X) =  -1615.53876566     A.U. after   22 cycles
 SCF Done:  E(UM062X) =  -1615.53877063     A.U. after   21 cycles
 SCF Done:  E(UM062X) =  -1615.53877307     A.U. after   19 cycles
 SCF Done:  E(UM062X) =  -1615.53877375     A.U. after   22 cycles
 SCF Done:  E(UM062X) =  -1615.53877400     A.U. after   20 cycles
 SCF Done:  E(UM062X) =  -1615.53877405     A.U. after   19 cycles
 Optimization completed.
    -- Stationary point found.

                          Input orientation:
 ---------------------------------------------------------------------
 Center     Atomic      Atomic             Coordinates (Angstroms)
 Number     Number       Type             X           Y           Z
 ---------------------------------------------------------------------
      1          6           0       -1.940202    0.000000   -0.000000
      2          6           0        1.940202   -0.000000   -0.000000
      3          6           0        0.000005   -1.955577   -0.006656
      4          6           0        0.000114   -3.368958   -0.011498
      5          6           0       -1.109620   -4.221006    0.258812
      6          6           0       -1.357480   -1.399813    0.199881
      7          6           0        0.653179   -5.611576   -0.185651
      8          1           0        1.281196   -6.474896   -0.352807
      9          6           0       -1.968253    0.814232    1.183095
     10          6           0       -0.652701   -5.612793    0.147000
     11          1           0       -1.280616   -6.477321    0.308198
     12          6           0        1.109913   -4.218999   -0.287899
     13          6           0        1.357389   -1.398313   -0.209785
     14          6           0        2.592259    2.106782   -1.314545
     15          6           0       -2.281195    0.303651   -1.362800
     16          6           0       -2.540835    2.748208    2.575309
     17          1           0       -3.033934    3.708611    2.668131
     18          6           0       -2.314310   -3.664544    0.563907
     19          1           0       -3.190465   -4.255447    0.803012
     20          6           0       -2.887023    1.513613   -1.838904
     21          6           0        2.400976   -2.252406   -0.521765
     22          1           0        3.377579   -1.804757   -0.675897
     23          6           0        2.280700    0.294197    1.364930
     24          6           0        2.885108    1.501436    1.849768
     25          6           0        2.314368   -3.660312   -0.589856
     26          1           0        3.190463   -4.249442   -0.833506
     27          6           0       -2.590406    2.098272    1.329034
     28          6           0       -1.309685    0.296106    2.339267
     29          1           0       -0.835405   -0.671785    2.283182
     30          6           0        1.973503   -0.696993    2.348068
     31          1           0        1.569030   -1.647855    2.034905
     32          6           0       -1.881693    2.216136    3.663588
     33          1           0       -1.859352    2.752359    4.604163
     34          6           0       -2.401101   -2.256216    0.505321
     35          1           0       -3.377844   -1.809769    0.661998
     36          6           0       -3.081357    1.686767   -3.221727
     37          1           0       -3.538621    2.609385   -3.559037
     38          6           0        1.969129    0.822224   -1.177486
     39          6           0       -3.279408    2.826901    0.296955
     40          1           0       -3.751739    3.740007    0.645136
     41          6           0       -2.727776    0.728120   -4.147121
     42          1           0       -2.898157    0.898881   -5.203037
     43          6           0       -3.383495    2.593684   -1.025803
     44          1           0       -3.923456    3.349287   -1.587444
     45          6           0        3.078010    1.665363    3.233940
     46          1           0        3.533932    2.586164    3.577964
     47          6           0       -1.250611    0.975276    3.533169
     48          1           0       -0.721979    0.536529    4.370759
     49          6           0       -1.973386   -0.680245   -2.353004
     50          1           0       -1.567598   -1.632790   -2.046723
     51          6           0        2.724874    0.699922    4.152373
     52          1           0        2.894168    0.863628    5.209583
     53          6           0        2.544451    2.764657   -2.556743
     54          1           0        3.038425    3.725218   -2.643020
     55          6           0        2.180180   -0.503512    3.693673
     56          1           0        1.928979   -1.293193    4.391582
     57          6           0        1.885662    2.240154   -3.648874
     58          1           0        1.864610    2.782388   -4.586027
     59          6           0        3.279870    2.828733   -0.276959
     60          1           0        3.752534    3.744138   -0.618581
     61          6           0       -2.181095   -0.477666   -3.697148
     62          1           0       -1.929249   -1.262138   -4.400680
     63          6           0        3.381863    2.587139    1.044496
     64          1           0        3.920553    3.339390    1.611827
     65          6           0        1.310620    0.312295   -2.337339
     66          1           0        0.835198   -0.655381   -2.287706
     67          6           0        1.252961    0.999238   -3.526825
     68          1           0        0.724147    0.566606   -4.367475
 ---------------------------------------------------------------------

 Alpha  occ. eigenvalues --  -10.70704 -10.70678 -10.68481 -10.68464 -10.68463
 Alpha  occ. eigenvalues --  -10.68305 -10.68289 -10.68074 -10.68053 -10.67845
 Alpha  occ. eigenvalues --  -10.67839 -10.67838 -10.67819 -10.66312 -10.66292
 Alpha  occ. eigenvalues --  -10.66203 -10.66183 -10.65795 -10.65776 -10.65744
 Alpha  occ. eigenvalues --  -10.65727 -10.65551 -10.65534 -10.65470 -10.65454
 Alpha  occ. eigenvalues --  -10.65384 -10.65367 -10.65318 -10.65304 -10.65200
 Alpha  occ. eigenvalues --  -10.65185 -10.65127 -10.65114 -10.65098 -10.65093
 Alpha  occ. eigenvalues --  -10.65028 -10.65023 -10.64720 -10.64717 -10.64108
 Alpha  occ. eigenvalues --  -10.63578 -10.63475  -1.11333  -1.10375  -1.09698
 Alpha  occ. eigenvalues --   -1.07889  -1.07765  -1.04948  -1.04746  -1.02114
 Alpha  occ. eigenvalues --   -1.02009  -1.00935  -0.99895  -0.97669  -0.97471
 Alpha  occ. eigenvalues --   -0.96341  -0.96197  -0.94707  -0.93465  -0.93279
 Alpha  occ. eigenvalues --   -0.92700  -0.91506  -0.87006  -0.86808  -0.84693
 Alpha  occ. eigenvalues --   -0.84576  -0.82930  -0.81319  -0.80564  -0.79623
 Alpha  occ. eigenvalues --   -0.79428  -0.79294  -0.76887  -0.76081  -0.75892
 Alpha  occ. eigenvalues --   -0.75697  -0.75076  -0.73058  -0.69669  -0.69402
 Alpha  occ. eigenvalues --   -0.68496  -0.68401  -0.67627  -0.67446  -0.66611
 Alpha  occ. eigenvalues --   -0.66595  -0.65659  -0.65201  -0.64975  -0.64370
 Alpha  occ. eigenvalues --   -0.63189  -0.62720  -0.62342  -0.61743  -0.60655
 Alpha  occ. eigenvalues --   -0.60554  -0.60283  -0.60003  -0.59737  -0.59529
 Alpha  occ. eigenvalues --   -0.59118  -0.58430  -0.58180  -0.57827  -0.57640
 Alpha  occ. eigenvalues --   -0.57319  -0.55950  -0.55733  -0.55502  -0.55450
 Alpha  occ. eigenvalues --   -0.54890  -0.54791  -0.52783  -0.52626  -0.52548
 Alpha  occ. eigenvalues --   -0.52259  -0.52048  -0.51733  -0.50776  -0.50765
 Alpha  occ. eigenvalues --   -0.50553  -0.49693  -0.49685  -0.49420  -0.48651
 Alpha  occ. eigenvalues --   -0.48518  -0.47958  -0.47794  -0.46414  -0.43999
 Alpha  occ. eigenvalues --   -0.43163  -0.42588  -0.41307  -0.40244  -0.38668
 Alpha  occ. eigenvalues --   -0.37909  -0.37855  -0.36901  -0.28561
 Alpha virt. eigenvalues --   -0.22369  -0.15209  -0.15010  -0.14745  -0.10185
 Alpha virt. eigenvalues --   -0.09010  -0.08716  -0.08586  -0.08100  -0.07802
 Alpha virt. eigenvalues --   -0.07220  -0.07039  -0.06678  -0.06165  -0.06028

  Beta  occ. eigenvalues --  -10.70540 -10.70512 -10.68527 -10.68509 -10.68436
  Beta  occ. eigenvalues --  -10.68353 -10.68336 -10.68034 -10.68012 -10.67863
  Beta  occ. eigenvalues --  -10.67856 -10.67792 -10.67772 -10.66305 -10.66285
  Beta  occ. eigenvalues --  -10.66195 -10.66175 -10.65758 -10.65739 -10.65710
  Beta  occ. eigenvalues --  -10.65694 -10.65507 -10.65490 -10.65429 -10.65414
  Beta  occ. eigenvalues --  -10.65401 -10.65385 -10.65334 -10.65319 -10.65222
  Beta  occ. eigenvalues --  -10.65207 -10.65146 -10.65133 -10.65089 -10.65085
  Beta  occ. eigenvalues --  -10.65019 -10.65014 -10.64720 -10.64716 -10.64107
  Beta  occ. eigenvalues --  -10.63578 -10.63475  -1.11202  -1.10193  -1.09619
  Beta  occ. eigenvalues --   -1.07785  -1.07664  -1.04794  -1.04580  -1.01999
  Beta  occ. eigenvalues --   -1.01899  -1.00753  -0.99729  -0.97565  -0.97366
  Beta  occ. eigenvalues --   -0.96234  -0.96102  -0.94666  -0.93394  -0.93178
  Beta  occ. eigenvalues --   -0.92618  -0.91425  -0.86688  -0.86460  -0.84625
  Beta  occ. eigenvalues --   -0.84509  -0.82854  -0.81228  -0.80464  -0.79547
  Beta  occ. eigenvalues --   -0.79351  -0.79214  -0.76782  -0.75961  -0.75720
  Beta  occ. eigenvalues --   -0.75528  -0.75011  -0.72954  -0.69545  -0.69253
  Beta  occ. eigenvalues --   -0.68391  -0.68315  -0.67579  -0.67399  -0.66493
  Beta  occ. eigenvalues --   -0.66473  -0.65537  -0.65051  -0.64824  -0.64278
  Beta  occ. eigenvalues --   -0.63011  -0.62658  -0.62234  -0.61668  -0.60524
  Beta  occ. eigenvalues --   -0.60433  -0.60167  -0.59912  -0.59676  -0.59340
  Beta  occ. eigenvalues --   -0.58925  -0.58371  -0.57992  -0.57696  -0.57417
  Beta  occ. eigenvalues --   -0.57242  -0.55649  -0.55465  -0.55412  -0.55385
  Beta  occ. eigenvalues --   -0.54756  -0.54569  -0.52680  -0.52522  -0.52490
  Beta  occ. eigenvalues --   -0.52149  -0.51929  -0.51712  -0.50718  -0.50676
  Beta  occ. eigenvalues --   -0.50463  -0.49600  -0.49486  -0.49078  -0.48293
  Beta  occ. eigenvalues --   -0.48259  -0.47912  -0.46717  -0.45667  -0.43614
  Beta  occ. eigenvalues --   -0.42737  -0.41948  -0.41013  -0.40149  -0.38195
  Beta  occ. eigenvalues --   -0.37719  -0.37399  -0.36895
  Beta virt. eigenvalues --   -0.19449  -0.18673  -0.15197  -0.15053  -0.14822
  Beta virt. eigenvalues --   -0.09991  -0.08584  -0.08303  -0.08170  -0.08117
  Beta virt. eigenvalues --   -0.07466  -0.07249  -0.07026  -0.06664  -0.06183

 Mulliken charges and spin densities:
               1          2
     1  C    0.005564   0.308558
     2  C    0.006499   0.306886
     3  C    0.091984   0.003114
     4  C    0.069609  -0.006512
     5  C    0.021087   0.008468
     6  C    0.392117  -0.007972
     7  C   -0.255371   0.001455
     8  H    0.175571   0.000005
     9  C   -0.060510  -0.108342
    10  C   -0.255365   0.001465
    11  H    0.175578   0.000005
    12  C    0.021503   0.008431
    13  C    0.391987  -0.007998
    14  C    0.450759   0.104470
    15  C    0.314502  -0.082624
    16  C   -0.153171  -0.037553
    17  H    0.175786   0.001092
    18  C   -0.371356   0.003517
    19  H    0.173753  -0.000032
    20  C    0.415525   0.093318
    21  C   -0.575748   0.018774
    22  H    0.166730   0.000705
    23  C    0.314923  -0.082215
    24  C    0.414842   0.092821
    25  C   -0.371773   0.003494
    26  H    0.173747  -0.000033
    27  C    0.450143   0.104948
    28  C    0.229149   0.075034
    29  H    0.181837  -0.006952
    30  C   -0.234458   0.049615
    31  H    0.234915  -0.004631
    32  C   -0.496205   0.086229
    33  H    0.181322  -0.004059
    34  C   -0.575694   0.018827
    35  H    0.166738   0.000706
    36  C   -0.179637  -0.033458
    37  H    0.171502   0.000764
    38  C   -0.061815  -0.107933
    39  C   -0.433096   0.012246
    40  H    0.177750  -0.001031
    41  C   -0.216009   0.069941
    42  H    0.180329  -0.003439
    43  C   -0.327469   0.025469
    44  H    0.178589  -0.001297
    45  C   -0.180008  -0.033300
    46  H    0.171490   0.000757
    47  C   -0.023069  -0.041498
    48  H    0.167474   0.001864
    49  C   -0.234427   0.050070
    50  H    0.234849  -0.004658
    51  C   -0.214395   0.069518
    52  H    0.180387  -0.003416
    53  C   -0.152176  -0.037352
    54  H    0.175849   0.001085
    55  C   -0.423743  -0.027079
    56  H    0.173980   0.000984
    57  C   -0.496930   0.085809
    58  H    0.181441  -0.004037
    59  C   -0.432877   0.012207
    60  H    0.177811  -0.001025
    61  C   -0.423350  -0.027301
    62  H    0.173883   0.000991
    63  C   -0.327634   0.025389
    64  H    0.178663  -0.001290
    65  C    0.231631   0.074394
    66  H    0.181789  -0.006924
    67  C   -0.024922  -0.041320
    68  H    0.167622   0.001856
 Sum of Mulliken charges =   1.00000   1.00000

 Dipole moment (field-independent basis, Debye):
    X=              0.0222    Y=              2.7748    Z=              0.0098  Tot=              2.7749
 Quadrupole moment (field-independent basis, Debye-Ang):
   XX=           -198.7869   YY=           -181.0509   ZZ=           -179.5118
   XY=              0.0060   XZ=              9.7215   YZ=             -0.0079

 Normal termination of Gaussian 16 at Thu Nov 21 10:13:38 2024.
