 Gaussian 16, Revision A.03,
 Gaussian 16:  ES64L-G16RevA.03 25-Dec-2016

 --------------------------------------------
 #p opt UM062X/6-311+G** nosymm int=superfine
 --------------------------------------------

 -------------------
 Title Card Required
 -------------------
 Symbolic Z-matrix:
 Charge =  0 Multiplicity = 1

 SCF Done:  E(UM062X) =  -51.8364585958     A.U. after    9 cycles
 SCF Done:  E(UM062X) =  -51.8408543736     A.U. after    8 cycles
 SCF Done:  E(UM062X) =  -51.8430693503     A.U. after   10 cycles
 SCF Done:  E(UM062X) =  -51.8430704293     A.U. after    8 cycles
 SCF Done:  E(UM062X) =  -51.8430369885     A.U. after    9 cycles
 SCF Done:  E(UM062X) =  -51.8430709191     A.U. after    9 cycles
 Optimization completed.
    -- Stationary point found.

                          Input orientation:
 ---------------------------------------------------------------------
 Center     Atomic      Atomic             Coordinates (Angstroms)
 Number     Number       Type             X           Y           Z
 ---------------------------------------------------------------------
      1          5           0       -1.670607    0.000000    0.000000
      2          5           0        1.670607    0.000000    0.000000
      3          1           0       -2.157721   -1.075069   -0.000389
      4          1           0        2.157721    1.075052   -0.006142
      5          1           0       -2.157722    1.075069    0.000708
      6          1           0        2.157722   -1.075050    0.006429
 ---------------------------------------------------------------------

 Alpha  occ. eigenvalues --   -7.10844  -7.10842  -0.57621  -0.56897  -0.44402
 Alpha  occ. eigenvalues --   -0.44106  -0.22311
 Alpha virt. eigenvalues --   -0.05289  -0.03834  -0.03071   0.02311   0.03611
 Alpha virt. eigenvalues --    0.03861   0.05663   0.06280   0.07517   0.07841
 Alpha virt. eigenvalues --    0.10292   0.15738   0.16872   0.17222   0.25284

  Beta  occ. eigenvalues --   -7.10844  -7.10842  -0.57621  -0.56897  -0.44402
  Beta  occ. eigenvalues --   -0.44106  -0.22311
  Beta virt. eigenvalues --   -0.05289  -0.03834  -0.03071   0.02311   0.03611
  Beta virt. eigenvalues --    0.03861   0.05663   0.06280   0.07517   0.07841
  Beta virt. eigenvalues --    0.10292   0.15738   0.16872   0.17222   0.25284

 Mulliken charges and spin densities:
               1          2
     1  B   -0.051268   0.000000
     2  B   -0.051268  -0.000000
     3  H    0.025634   0.000000
     4  H    0.025634   0.000000
     5  H    0.025634  -0.000000
     6  H    0.025634  -0.000000
 Sum of Mulliken charges =  -0.00000   0.00000

 Dipole moment (field-independent basis, Debye):
    X=              0.0000    Y=              0.0000    Z=              0.0001  Tot=              0.0001
 Quadrupole moment (field-independent basis, Debye-Ang):
   XX=            -13.1694   YY=            -16.9054   ZZ=            -14.2283
   XY=             -0.0000   XZ=              0.0000   YZ=              0.0071

 Normal termination of Gaussian 16 at Mon Apr 21 17:16:05 2025.
