 Gaussian 16, Revision A.03,
 Gaussian 16:  ES64L-G16RevA.03 25-Dec-2016

 --------------------------------------------
 #p opt UM062X/6-311+G** nosymm int=superfine
 --------------------------------------------

 -------------------
 Title Card Required
 -------------------
 Symbolic Z-matrix:
 Charge =  0 Multiplicity = 1

 SCF Done:  E(UM062X) =  -78.4945554078     A.U. after    8 cycles
 SCF Done:  E(UM062X) =  -78.5063570004     A.U. after    8 cycles
 SCF Done:  E(UM062X) =  -78.5072602459     A.U. after    7 cycles
 SCF Done:  E(UM062X) =  -78.5072618804     A.U. after    6 cycles
 Optimization completed.
    -- Stationary point found.

                          Input orientation:
 ---------------------------------------------------------------------
 Center     Atomic      Atomic             Coordinates (Angstroms)
 Number     Number       Type             X           Y           Z
 ---------------------------------------------------------------------
      1          6           0       -0.570070    0.000000    0.000000
      2          6           0        0.570070    0.000000    0.000000
      3          1           0       -1.175422   -0.905757   -0.000000
      4          1           0       -1.175425    0.905743   -0.000000
      5          1           0        1.175422    0.905757    0.000000
      6          1           0        1.175425   -0.905743    0.000000
 ---------------------------------------------------------------------

 Alpha  occ. eigenvalues --  -10.50855 -10.50434  -0.90829  -0.64420  -0.56028
 Alpha  occ. eigenvalues --   -0.51271  -0.38133  -0.37589
 Alpha virt. eigenvalues --    0.03382   0.04215   0.04783   0.05510   0.07179
 Alpha virt. eigenvalues --    0.08538   0.09777   0.15901   0.16113   0.17812
 Alpha virt. eigenvalues --    0.19081   0.24202   0.32951   0.39786   0.43905

  Beta  occ. eigenvalues --  -10.50855 -10.50434  -0.90829  -0.64420  -0.56028
  Beta  occ. eigenvalues --   -0.51271  -0.38133  -0.37589
  Beta virt. eigenvalues --    0.03382   0.04215   0.04783   0.05510   0.07179
  Beta virt. eigenvalues --    0.08538   0.09777   0.15901   0.16113   0.17812
  Beta virt. eigenvalues --    0.19081   0.24202   0.32951   0.39786   0.43905

 Mulliken charges and spin densities:
               1          2
     1  C   -0.273533   0.000000
     2  C   -0.273533  -0.000000
     3  H    0.136766  -0.000000
     4  H    0.136768   0.000000
     5  H    0.136766   0.000000
     6  H    0.136768  -0.000000
 Sum of Mulliken charges =  -0.00000  -0.00000

 Dipole moment (field-independent basis, Debye):
    X=              0.0000    Y=             -0.0000    Z=             -0.0000  Tot=              0.0000
 Quadrupole moment (field-independent basis, Debye-Ang):
   XX=            -12.4225   YY=            -12.3430   ZZ=            -15.0409
   XY=             -0.0000   XZ=              0.0000   YZ=             -0.0000

 Normal termination of Gaussian 16 at Tue Nov 19 10:31:12 2024.
