 Gaussian 16, Revision A.03,
 Gaussian 16:  ES64L-G16RevA.03 25-Dec-2016

 --------------------------------------------
 #p opt UM062X/6-311+G** nosymm int=superfine
 --------------------------------------------

 -------------------
 Title Card Required
 -------------------
 Symbolic Z-matrix:
 Charge =  0 Multiplicity = 1

 SCF Done:  E(UM062X) =  -379.564397957     A.U. after   16 cycles
 SCF Done:  E(UM062X) =  -379.565818649     A.U. after   10 cycles
 SCF Done:  E(UM062X) =  -379.565824790     A.U. after   10 cycles
 Optimization completed.
    -- Stationary point found.

                          Input orientation:
 ---------------------------------------------------------------------
 Center     Atomic      Atomic             Coordinates (Angstroms)
 Number     Number       Type             X           Y           Z
 ---------------------------------------------------------------------
      1          6           0       -1.890377    0.000000    0.000000
      2         15           0        1.890377    0.000000    0.000000
      3          1           0       -3.013063    0.000000   -0.000000
 ---------------------------------------------------------------------

 Alpha  occ. eigenvalues --  -78.07156 -10.72030  -6.89055  -5.00965  -5.00029
 Alpha  occ. eigenvalues --   -5.00029  -0.76775  -0.60437  -0.42458  -0.23686
 Alpha  occ. eigenvalues --   -0.23686
 Alpha virt. eigenvalues --   -0.15567  -0.15567  -0.11753   0.01089   0.04107
 Alpha virt. eigenvalues --    0.05980   0.05980   0.07666   0.08463   0.08463
 Alpha virt. eigenvalues --    0.13096   0.16181   0.33171   0.33350   0.33350

  Beta  occ. eigenvalues --  -78.07156 -10.72030  -6.89055  -5.00965  -5.00029
  Beta  occ. eigenvalues --   -5.00029  -0.76775  -0.60437  -0.42458  -0.23686
  Beta  occ. eigenvalues --   -0.23686
  Beta virt. eigenvalues --   -0.15567  -0.15567  -0.11753   0.01089   0.04107
  Beta virt. eigenvalues --    0.05980   0.05980   0.07666   0.08463   0.08463
  Beta virt. eigenvalues --    0.13096   0.16181   0.33171   0.33350   0.33350

 Mulliken charges and spin densities:
               1          2
     1  C   -0.100210  -0.000000
     2  P   -0.065022   0.000000
     3  H    0.165232   0.000000
 Sum of Mulliken charges =  -0.00000  -0.00000

 Dipole moment (field-independent basis, Debye):
    X=             -3.2459    Y=              0.0000    Z=             -0.0000  Tot=              3.2459
 Quadrupole moment (field-independent basis, Debye-Ang):
   XX=            -10.1074   YY=            -24.1771   ZZ=            -24.1771
   XY=             -0.0000   XZ=              0.0000   YZ=              0.0000

 Normal termination of Gaussian 16 at Mon Apr 21 19:30:07 2025.
