 Gaussian 16, Revision A.03,
 Gaussian 16:  ES64L-G16RevA.03 25-Dec-2016

 --------------------------------------------
 #p opt UM062X/6-311+G** nosymm int=superfine
 --------------------------------------------

 -------------------
 Title Card Required
 -------------------
 Symbolic Z-matrix:
 Charge =  0 Multiplicity = 1

 SCF Done:  E(UM062X) =  -79.6385448281     A.U. after   10 cycles
 SCF Done:  E(UM062X) =  -79.6394641104     A.U. after    8 cycles
 SCF Done:  E(UM062X) =  -79.6396784928     A.U. after    9 cycles
 Optimization completed.
    -- Stationary point found.

                          Input orientation:
 ---------------------------------------------------------------------
 Center     Atomic      Atomic             Coordinates (Angstroms)
 Number     Number       Type             X           Y           Z
 ---------------------------------------------------------------------
      1          6           0       -1.421675    0.000000    0.000000
      2          6           0        1.421800    0.000000    0.000000
      3          1           0        1.571803   -0.926256    0.535969
      4          1           0       -1.571669   -0.927301   -0.534161
      5          1           0        1.571797    0.927301    0.534160
      6          1           0        1.571769   -0.001044   -1.070153
      7          1           0       -1.571678    0.926256   -0.535969
      8          1           0       -1.571647    0.001043    1.070152
 ---------------------------------------------------------------------

 Alpha  occ. eigenvalues --  -10.56477 -10.56474  -0.76997  -0.75307  -0.48538
 Alpha  occ. eigenvalues --   -0.48538  -0.47600  -0.47600  -0.25413
 Alpha virt. eigenvalues --   -0.05815   0.02779   0.05411   0.05411   0.05986
 Alpha virt. eigenvalues --    0.07974   0.07974   0.10715   0.12616   0.18280
 Alpha virt. eigenvalues --    0.18281   0.21590   0.21590   0.24254   0.25478

  Beta  occ. eigenvalues --  -10.56477 -10.56474  -0.76997  -0.75307  -0.48538
  Beta  occ. eigenvalues --   -0.48538  -0.47600  -0.47600  -0.25413
  Beta virt. eigenvalues --   -0.05815   0.02779   0.05411   0.05411   0.05986
  Beta virt. eigenvalues --    0.07974   0.07974   0.10715   0.12616   0.18280
  Beta virt. eigenvalues --    0.18281   0.21590   0.21590   0.24254   0.25478

 Mulliken charges and spin densities:
               1          2
     1  C   -0.519943   0.000000
     2  C   -0.519943  -0.000000
     3  H    0.173314   0.000000
     4  H    0.173314   0.000000
     5  H    0.173314   0.000000
     6  H    0.173315   0.000000
     7  H    0.173314   0.000000
     8  H    0.173315  -0.000000
 Sum of Mulliken charges =  -0.00000   0.00000

 Dipole moment (field-independent basis, Debye):
    X=             -0.0000    Y=             -0.0000    Z=             -0.0000  Tot=              0.0000
 Quadrupole moment (field-independent basis, Debye-Ang):
   XX=            -15.4579   YY=            -14.7940   ZZ=            -14.7941
   XY=             -0.0000   XZ=              0.0000   YZ=             -0.0000

 Normal termination of Gaussian 16 at Tue Dec  3 09:59:32 2024.
