 Gaussian 16, Revision A.03,
 Gaussian 16:  ES64L-G16RevA.03 25-Dec-2016

 --------------------------------------------
 #p opt UM062X/6-311+G** nosymm int=superfine
 --------------------------------------------

 -------------------
 Title Card Required
 -------------------
 Symbolic Z-matrix:
 Charge =  0 Multiplicity = 1

 SCF Done:  E(UM062X) =  -76.8527237631     A.U. after   15 cycles
 SCF Done:  E(UM062X) =  -76.8530088048     A.U. after   15 cycles
 SCF Done:  E(UM062X) =  -76.8537851670     A.U. after   16 cycles
 SCF Done:  E(UM062X) =  -76.8543984063     A.U. after   17 cycles
 SCF Done:  E(UM062X) =  -76.8544523963     A.U. after   20 cycles
 SCF Done:  E(UM062X) =  -76.8544699412     A.U. after   20 cycles
 SCF Done:  E(UM062X) =  -76.8544704329     A.U. after   16 cycles
 SCF Done:  E(UM062X) =  -76.8544705971     A.U. after   15 cycles
 Optimization completed.
    -- Stationary point found.

                          Input orientation:
 ---------------------------------------------------------------------
 Center     Atomic      Atomic             Coordinates (Angstroms)
 Number     Number       Type             X           Y           Z
 ---------------------------------------------------------------------
      1          6           0       -2.157625    0.000000    0.000000
      2          6           0        2.157625    0.000000    0.000000
      3          1           0       -1.956467   -0.649564    0.888593
      4          1           0        1.956482    0.650126   -0.888186
 ---------------------------------------------------------------------

 Alpha  occ. eigenvalues --  -10.67594 -10.67593  -0.73003  -0.72775  -0.39175
 Alpha  occ. eigenvalues --   -0.39091  -0.22639
 Alpha virt. eigenvalues --   -0.14168  -0.10287  -0.09871   0.03046   0.04364
 Alpha virt. eigenvalues --    0.07185   0.07233   0.09081   0.09487   0.10388
 Alpha virt. eigenvalues --    0.13668   0.17936   0.19002   0.45320   0.46125

  Beta  occ. eigenvalues --  -10.67594 -10.67593  -0.73003  -0.72775  -0.39175
  Beta  occ. eigenvalues --   -0.39091  -0.22639
  Beta virt. eigenvalues --   -0.14168  -0.10287  -0.09871   0.03046   0.04364
  Beta virt. eigenvalues --    0.07185   0.07233   0.09081   0.09487   0.10388
  Beta virt. eigenvalues --    0.13668   0.17936   0.19002   0.45320   0.46125

 Mulliken charges and spin densities:
               1          2
     1  C   -0.139373  -0.000000
     2  C   -0.139375  -0.000000
     3  H    0.139374  -0.000000
     4  H    0.139374   0.000000
 Sum of Mulliken charges =  -0.00000  -0.00000

 Dipole moment (field-independent basis, Debye):
    X=              0.0000    Y=              0.0008    Z=              0.0006  Tot=              0.0010
 Quadrupole moment (field-independent basis, Debye-Ang):
   XX=            -17.6480   YY=            -13.0373   ZZ=            -13.8719
   XY=              4.1022   XZ=             -5.6087   YZ=              1.3133

 Normal termination of Gaussian 16 at Wed Dec  4 00:31:59 2024.
