 Gaussian 16, Revision A.03,
 Gaussian 16:  ES64L-G16RevA.03 25-Dec-2016

 --------------------------------------------
 #p opt UM062X/6-311+G** nosymm int=superfine
 --------------------------------------------

 -------------------
 Title Card Required
 -------------------
 Symbolic Z-matrix:
 Charge =  1 Multiplicity = 2

 SCF Done:  E(UM062X) =  -580.893232906     A.U. after   11 cycles
 SCF Done:  E(UM062X) =  -580.893669743     A.U. after    9 cycles
 SCF Done:  E(UM062X) =  -580.893823737     A.U. after   14 cycles
 SCF Done:  E(UM062X) =  -580.893812976     A.U. after   19 cycles
 SCF Done:  E(UM062X) =  -580.895318397     A.U. after   42 cycles
 SCF Done:  E(UM062X) =  -580.913922209     A.U. after   17 cycles
 SCF Done:  E(UM062X) =  -580.919553517     A.U. after   16 cycles
 SCF Done:  E(UM062X) =  -580.917892858     A.U. after   14 cycles
 SCF Done:  E(UM062X) =  -580.921271206     A.U. after   13 cycles
 SCF Done:  E(UM062X) =  -580.921423636     A.U. after   12 cycles
 SCF Done:  E(UM062X) =  -580.921562657     A.U. after   14 cycles
 SCF Done:  E(UM062X) =  -580.921568166     A.U. after   13 cycles
 SCF Done:  E(UM062X) =  -580.921569534     A.U. after   11 cycles
 SCF Done:  E(UM062X) =  -580.921569705     A.U. after   10 cycles
 Optimization completed.
    -- Stationary point found.

                          Input orientation:
 ---------------------------------------------------------------------
 Center     Atomic      Atomic             Coordinates (Angstroms)
 Number     Number       Type             X           Y           Z
 ---------------------------------------------------------------------
      1         14           0       -1.591295    0.000000    0.000000
      2         14           0        1.591295    0.000000    0.000000
      3          1           0       -1.850081   -1.255513    0.733600
      4          1           0        2.462215    1.197598   -0.049442
      5          1           0       -1.850118    1.254746    0.734900
      6          1           0        2.462193   -1.197716   -0.046974
 ---------------------------------------------------------------------

 Alpha  occ. eigenvalues --  -67.26065 -67.25560  -5.80428  -5.80076  -4.11877
 Alpha  occ. eigenvalues --   -4.11555  -4.11503  -4.11089  -4.10801  -4.10774
 Alpha  occ. eigenvalues --   -0.81137  -0.78594  -0.62989  -0.61203  -0.52802
 Alpha  occ. eigenvalues --   -0.48219
 Alpha virt. eigenvalues --   -0.27983  -0.25871  -0.13599  -0.12470  -0.10221
 Alpha virt. eigenvalues --   -0.08798  -0.08719  -0.08125  -0.07626  -0.07479
 Alpha virt. eigenvalues --   -0.06319  -0.05917  -0.05710  -0.02114   0.12319

  Beta  occ. eigenvalues --  -67.25537 -67.25467  -5.80059  -5.80004  -4.11488
  Beta  occ. eigenvalues --   -4.11349  -4.10885  -4.10793  -4.10737  -4.10484
  Beta  occ. eigenvalues --   -0.79409  -0.76803  -0.61737  -0.61016  -0.50732
  Beta virt. eigenvalues --   -0.30374  -0.27235  -0.24297  -0.13499  -0.13303
  Beta virt. eigenvalues --   -0.10313  -0.08986  -0.08429  -0.07548  -0.07213
  Beta virt. eigenvalues --   -0.07081  -0.06062  -0.05902  -0.04065  -0.02471

 Mulliken charges and spin densities:
               1          2
     1  Si   0.523685   0.871249
     2  Si   0.497301   0.026759
     3  H    0.001555   0.047921
     4  H   -0.012051   0.003069
     5  H    0.001563   0.047911
     6  H   -0.012051   0.003091
 Sum of Mulliken charges =   1.00000   1.00000

 Dipole moment (field-independent basis, Debye):
    X=              0.1451    Y=             -0.0000    Z=              0.0791  Tot=              0.1653
 Quadrupole moment (field-independent basis, Debye-Ang):
   XX=             -7.8848   YY=            -24.8929   ZZ=            -23.1451
   XY=              0.0001   XZ=              0.0663   YZ=              0.0026

 Normal termination of Gaussian 16 at Mon Apr 21 20:23:38 2025.
