 Gaussian 16, Revision A.03,
 Gaussian 16:  ES64L-G16RevA.03 25-Dec-2016

 --------------------------------------------
 #p opt UM062X/6-311+G** nosymm int=superfine
 --------------------------------------------

 -------------------
 Title Card Required
 -------------------
 Symbolic Z-matrix:
 Charge =  0 Multiplicity = 1

 SCF Done:  E(UM062X) =  -110.278133523     A.U. after   13 cycles
 SCF Done:  E(UM062X) =  -110.289083103     A.U. after   12 cycles
 SCF Done:  E(UM062X) =  -110.292933006     A.U. after   12 cycles
 SCF Done:  E(UM062X) =  -110.292938716     A.U. after    9 cycles
 Optimization completed.
    -- Stationary point found.

                          Input orientation:
 ---------------------------------------------------------------------
 Center     Atomic      Atomic             Coordinates (Angstroms)
 Number     Number       Type             X           Y           Z
 ---------------------------------------------------------------------
      1          7           0       -1.240428    0.000000    0.000000
      2          7           0        1.240428    0.000000    0.000000
      3          1           0       -1.120478   -1.029889    0.000000
      4          1           0        1.120478    1.029889    0.000000
 ---------------------------------------------------------------------

 Alpha  occ. eigenvalues --  -14.88762 -14.88756  -0.94059  -0.90581  -0.49681
 Alpha  occ. eigenvalues --   -0.47846  -0.35942  -0.32284
 Alpha virt. eigenvalues --   -0.18691  -0.14123   0.05690   0.07674   0.10646
 Alpha virt. eigenvalues --    0.12186   0.13309   0.14807   0.15994   0.19452
 Alpha virt. eigenvalues --    0.19684   0.24421   0.52946   0.55968   0.74767

  Beta  occ. eigenvalues --  -14.88762 -14.88756  -0.94059  -0.90581  -0.49681
  Beta  occ. eigenvalues --   -0.47846  -0.35942  -0.32284
  Beta virt. eigenvalues --   -0.18691  -0.14123   0.05690   0.07674   0.10646
  Beta virt. eigenvalues --    0.12186   0.13309   0.14807   0.15994   0.19452
  Beta virt. eigenvalues --    0.19684   0.24421   0.52946   0.55968   0.74767

 Mulliken charges and spin densities:
               1          2
     1  N   -0.246190   0.000000
     2  N   -0.246190  -0.000000
     3  H    0.246190  -0.000000
     4  H    0.246190   0.000000
 Sum of Mulliken charges =  -0.00000   0.00000

 Dipole moment (field-independent basis, Debye):
    X=              0.0000    Y=             -0.0000    Z=              0.0000  Tot=              0.0000
 Quadrupole moment (field-independent basis, Debye-Ang):
   XX=            -13.7013   YY=            -10.9486   ZZ=            -14.1211
   XY=              4.3825   XZ=              0.0000   YZ=              0.0000

 Normal termination of Gaussian 16 at Thu May 15 15:36:47 2025.
