 Gaussian 16, Revision A.03,
 Gaussian 16:  ES64L-G16RevA.03 25-Dec-2016

 --------------------------------------------
 #p opt UM062X/6-311+G** nosymm int=superfine
 --------------------------------------------

 -------------------
 Title Card Required
 -------------------
 Symbolic Z-matrix:
 Charge =  0 Multiplicity = 1

 SCF Done:  E(UM062X) =  -379.784078072     A.U. after   11 cycles
 SCF Done:  E(UM062X) =  -379.784347755     A.U. after    9 cycles
 Optimization completed.
    -- Stationary point found.

                          Input orientation:
 ---------------------------------------------------------------------
 Center     Atomic      Atomic             Coordinates (Angstroms)
 Number     Number       Type             X           Y           Z
 ---------------------------------------------------------------------
      1          6           0       -1.090377    0.000000    0.000000
      2         15           0        1.090377    0.000000    0.000000
      3          1           0       -2.184370    0.000000    0.000000
 ---------------------------------------------------------------------

 Alpha  occ. eigenvalues --  -78.10155 -10.67229  -6.91612  -5.03078  -5.02867
 Alpha  occ. eigenvalues --   -5.02867  -0.74775  -0.63303  -0.42277  -0.28579
 Alpha  occ. eigenvalues --   -0.28579
 Alpha virt. eigenvalues --   -0.09732  -0.09732  -0.03328   0.01638   0.04754
 Alpha virt. eigenvalues --    0.05318   0.05318   0.07159   0.10201   0.10201
 Alpha virt. eigenvalues --    0.15980   0.21432   0.30335   0.32783   0.32783

  Beta  occ. eigenvalues --  -78.10155 -10.67229  -6.91612  -5.03078  -5.02867
  Beta  occ. eigenvalues --   -5.02867  -0.74775  -0.63303  -0.42277  -0.28579
  Beta  occ. eigenvalues --   -0.28579
  Beta virt. eigenvalues --   -0.09732  -0.09732  -0.03328   0.01638   0.04754
  Beta virt. eigenvalues --    0.05318   0.05318   0.07159   0.10201   0.10201
  Beta virt. eigenvalues --    0.15980   0.21432   0.30335   0.32783   0.32783

 Mulliken charges and spin densities:
               1          2
     1  C   -0.344591  -0.000000
     2  P    0.121074   0.000000
     3  H    0.223517  -0.000000
 Sum of Mulliken charges =  -0.00000  -0.00000

 Dipole moment (field-independent basis, Debye):
    X=             -0.4576    Y=             -0.0000    Z=              0.0000  Tot=              0.4576
 Quadrupole moment (field-independent basis, Debye-Ang):
   XX=            -13.3976   YY=            -22.4673   ZZ=            -22.4673
   XY=              0.0000   XZ=             -0.0000   YZ=              0.0000

 Normal termination of Gaussian 16 at Mon Apr 21 19:29:27 2025.
