 Gaussian 16, Revision A.03,
 Gaussian 16:  ES64L-G16RevA.03 25-Dec-2016

 --------------------------------------------
 #p opt UM062X/6-311+G** nosymm int=superfine
 --------------------------------------------

 -------------------
 Title Card Required
 -------------------
 Symbolic Z-matrix:
 Charge =  0 Multiplicity = 1

 SCF Done:  E(UM062X) =  -51.7844063241     A.U. after   10 cycles
 SCF Done:  E(UM062X) =  -51.7898753937     A.U. after    9 cycles
 SCF Done:  E(UM062X) =  -51.7932098446     A.U. after   11 cycles
 SCF Done:  E(UM062X) =  -51.7932131840     A.U. after    9 cycles
 SCF Done:  E(UM062X) =  -51.7932121921     A.U. after    9 cycles
 SCF Done:  E(UM062X) =  -51.7932124976     A.U. after    9 cycles
 SCF Done:  E(UM062X) =  -51.7932131196     A.U. after   10 cycles
 Optimization completed.
    -- Stationary point found.

                          Input orientation:
 ---------------------------------------------------------------------
 Center     Atomic      Atomic             Coordinates (Angstroms)
 Number     Number       Type             X           Y           Z
 ---------------------------------------------------------------------
      1          5           0       -2.145607    0.000000    0.000000
      2          5           0        2.145607    0.000000    0.000000
      3          1           0       -2.600370   -1.088310   -0.000800
      4          1           0        2.600370    1.088290   -0.006651
      5          1           0       -2.600372    1.088309   -0.000718
      6          1           0        2.600372   -1.088297    0.005135
 ---------------------------------------------------------------------

 Alpha  occ. eigenvalues --   -7.11599  -7.11598  -0.58008  -0.57783  -0.45367
 Alpha  occ. eigenvalues --   -0.45314  -0.19505
 Alpha virt. eigenvalues --   -0.08122  -0.05165  -0.04293   0.02248   0.03112
 Alpha virt. eigenvalues --    0.03844   0.05364   0.06163   0.07165   0.08415
 Alpha virt. eigenvalues --    0.09973   0.15190   0.15771   0.17184   0.23560

  Beta  occ. eigenvalues --   -7.11599  -7.11598  -0.58008  -0.57783  -0.45367
  Beta  occ. eigenvalues --   -0.45314  -0.19505
  Beta virt. eigenvalues --   -0.08122  -0.05165  -0.04293   0.02248   0.03112
  Beta virt. eigenvalues --    0.03844   0.05364   0.06163   0.07165   0.08415
  Beta virt. eigenvalues --    0.09973   0.15190   0.15771   0.17184   0.23560

 Mulliken charges and spin densities:
               1          2
     1  B   -0.062239   0.000000
     2  B   -0.062239  -0.000000
     3  H    0.031120   0.000000
     4  H    0.031120  -0.000000
     5  H    0.031120   0.000000
     6  H    0.031120  -0.000000
 Sum of Mulliken charges =  -0.00000  -0.00000

 Dipole moment (field-independent basis, Debye):
    X=              0.0000    Y=             -0.0000    Z=             -0.0018  Tot=              0.0018
 Quadrupole moment (field-independent basis, Debye-Ang):
   XX=            -10.3970   YY=            -16.9688   ZZ=            -14.6312
   XY=              0.0000   XZ=             -0.0000   YZ=              0.0063

 Normal termination of Gaussian 16 at Mon Apr 21 17:18:35 2025.
