 Gaussian 16, Revision A.03,
 Gaussian 16:  ES64L-G16RevA.03 25-Dec-2016

 --------------------------------------------
 #p opt UM062X/6-311+G** nosymm int=superfine
 --------------------------------------------

 -------------------
 Title Card Required
 -------------------
 Symbolic Z-matrix:
 Charge =  1 Multiplicity = 2

 SCF Done:  E(UM062X) =  -1615.38203425     A.U. after   28 cycles
 SCF Done:  E(UM062X) =  -1615.47064266     A.U. after   26 cycles
 SCF Done:  E(UM062X) =  -1615.56804731     A.U. after   23 cycles
 SCF Done:  E(UM062X) =  -1615.57510217     A.U. after   23 cycles
 SCF Done:  E(UM062X) =  -1615.57654653     A.U. after   27 cycles
 SCF Done:  E(UM062X) =  -1615.57803022     A.U. after   25 cycles
 SCF Done:  E(UM062X) =  -1615.57795703     A.U. after   25 cycles
 SCF Done:  E(UM062X) =  -1615.56913997     A.U. after   27 cycles
 SCF Done:  E(UM062X) =  -1615.56630317     A.U. after   24 cycles
 SCF Done:  E(UM062X) =  -1615.57808938     A.U. after   22 cycles
 SCF Done:  E(UM062X) =  -1615.57852944     A.U. after   24 cycles
 SCF Done:  E(UM062X) =  -1615.57864983     A.U. after   24 cycles
 SCF Done:  E(UM062X) =  -1615.57869295     A.U. after   22 cycles
 SCF Done:  E(UM062X) =  -1615.57875655     A.U. after   22 cycles
 SCF Done:  E(UM062X) =  -1615.57875948     A.U. after   19 cycles
 SCF Done:  E(UM062X) =  -1615.57876701     A.U. after   18 cycles
 SCF Done:  E(UM062X) =  -1615.57876740     A.U. after   18 cycles
 SCF Done:  E(UM062X) =  -1615.57876807     A.U. after   18 cycles
 SCF Done:  E(UM062X) =  -1615.57876823     A.U. after   13 cycles
 SCF Done:  E(UM062X) =  -1615.57876826     A.U. after   14 cycles
 Optimization completed.
    -- Stationary point found.

                          Input orientation:
 ---------------------------------------------------------------------
 Center     Atomic      Atomic             Coordinates (Angstroms)
 Number     Number       Type             X           Y           Z
 ---------------------------------------------------------------------
      1          6           0       -1.626373   -0.000000   -0.000000
      2          6           0        1.626373   -0.000000   -0.000000
      3          6           0       -0.000013   -2.059209    0.000559
      4          6           0       -0.000036   -3.459533    0.000832
      5          6           0       -1.132977   -4.290948    0.201382
      6          6           0       -1.318683   -1.467074    0.169049
      7          6           0        0.664364   -5.684532   -0.119078
      8          1           0        1.296234   -6.553275   -0.236437
      9          6           0       -1.653327    0.768030    1.218409
     10          6           0       -0.664585   -5.684461    0.121291
     11          1           0       -1.296555   -6.553136    0.238618
     12          6           0        1.132893   -4.291069   -0.199268
     13          6           0        1.318682   -1.467187   -0.168091
     14          6           0        1.780319    2.191614   -1.336525
     15          6           0       -1.740310    0.405195   -1.375514
     16          6           0       -1.843938    2.776314    2.613606
     17          1           0       -1.957752    3.852393    2.675767
     18          6           0       -2.346654   -3.701695    0.422863
     19          1           0       -3.249254   -4.276478    0.594638
     20          6           0       -1.732689    1.750841   -1.874219
     21          6           0        2.408789   -2.285753   -0.390457
     22          1           0        3.377603   -1.811486   -0.511741
     23          6           0        1.740501    0.406134    1.375238
     24          6           0        1.732952    1.752119    1.873016
     25          6           0        2.346587   -3.701943   -0.421021
     26          1           0        3.249144   -4.276820   -0.592709
     27          6           0       -1.780619    2.192498    1.335028
     28          6           0       -1.513727    0.049506    2.442828
     29          1           0       -1.369836   -1.019585    2.411633
     30          6           0        1.814360   -0.628672    2.361626
     31          1           0        1.849726   -1.659757    2.044662
     32          6           0       -1.759272    2.034682    3.773509
     33          1           0       -1.821191    2.520357    4.739779
     34          6           0       -2.408829   -2.285516    0.391651
     35          1           0       -3.377652   -1.811176    0.512579
     36          6           0       -1.756673    1.969946   -3.266338
     37          1           0       -1.732438    2.994623   -3.618658
     38          6           0        1.653342    0.767195   -1.218924
     39          6           0       -1.778324    3.136431    0.249197
     40          1           0       -1.806283    4.172885    0.571167
     41          6           0       -1.828163    0.942126   -4.178322
     42          1           0       -1.863186    1.153664   -5.240159
     43          6           0       -1.725174    2.951901   -1.085120
     44          1           0       -1.706440    3.862497   -1.676350
     45          6           0        1.757482    1.972193    3.264976
     46          1           0        1.733351    2.997113    3.616594
     47          6           0       -1.571822    0.654232    3.678124
     48          1           0       -1.469605    0.051105    4.572123
     49          6           0       -1.813921   -0.630295   -2.361205
     50          1           0       -1.849466   -1.661154   -2.043518
     51          6           0        1.829360    0.945011    4.177647
     52          1           0        1.864842    1.157288    5.239322
     53          6           0        1.843665    2.774551   -2.615500
     54          1           0        1.957216    3.850616   -2.678394
     55          6           0        1.874907   -0.373549    3.709659
     56          1           0        1.953481   -1.199724    4.405763
     57          6           0        1.759351    2.032089   -3.774898
     58          1           0        1.821302    2.517105   -4.741497
     59          6           0        1.777615    3.136297   -0.251341
     60          1           0        1.805041    4.172544   -0.574020
     61          6           0       -1.873982   -0.376108   -3.709432
     62          1           0       -1.952382   -1.202761   -4.404988
     63          6           0        1.724777    2.952646    1.083108
     64          1           0        1.705759    3.863631    1.673728
     65          6           0        1.514043    0.047792   -2.442858
     66          1           0        1.370364   -1.021308   -2.410924
     67          6           0        1.572187    0.651664   -3.678568
     68          1           0        1.470220    0.047884   -4.572156
 ---------------------------------------------------------------------

 Alpha  occ. eigenvalues --  -10.70669 -10.70668 -10.68658 -10.68658 -10.68608
 Alpha  occ. eigenvalues --  -10.68607 -10.68255 -10.68255 -10.68249 -10.68248
 Alpha  occ. eigenvalues --  -10.67472 -10.67442 -10.67392 -10.66709 -10.66709
 Alpha  occ. eigenvalues --  -10.66605 -10.66605 -10.65931 -10.65931 -10.65863
 Alpha  occ. eigenvalues --  -10.65863 -10.65730 -10.65730 -10.65704 -10.65703
 Alpha  occ. eigenvalues --  -10.65613 -10.65612 -10.65595 -10.65594 -10.65417
 Alpha  occ. eigenvalues --  -10.65416 -10.65413 -10.65413 -10.65341 -10.65340
 Alpha  occ. eigenvalues --  -10.65241 -10.65241 -10.64851 -10.64850 -10.63775
 Alpha  occ. eigenvalues --  -10.63762 -10.63661  -1.11793  -1.10348  -1.09992
 Alpha  occ. eigenvalues --   -1.08277  -1.07814  -1.05217  -1.04977  -1.02501
 Alpha  occ. eigenvalues --   -1.02144  -1.01021  -1.00197  -0.97933  -0.97653
 Alpha  occ. eigenvalues --   -0.96706  -0.96304  -0.94862  -0.93545  -0.93468
 Alpha  occ. eigenvalues --   -0.92860  -0.91711  -0.87349  -0.87150  -0.84981
 Alpha  occ. eigenvalues --   -0.84814  -0.83022  -0.81525  -0.80747  -0.79755
 Alpha  occ. eigenvalues --   -0.79669  -0.79536  -0.77321  -0.76302  -0.76163
 Alpha  occ. eigenvalues --   -0.75887  -0.75315  -0.73295  -0.70143  -0.69614
 Alpha  occ. eigenvalues --   -0.68749  -0.68533  -0.67754  -0.67655  -0.66898
 Alpha  occ. eigenvalues --   -0.66891  -0.65734  -0.65351  -0.65227  -0.64675
 Alpha  occ. eigenvalues --   -0.63222  -0.62734  -0.62403  -0.62106  -0.60951
 Alpha  occ. eigenvalues --   -0.60934  -0.60519  -0.60232  -0.60081  -0.60020
 Alpha  occ. eigenvalues --   -0.59533  -0.58810  -0.58747  -0.58100  -0.57645
 Alpha  occ. eigenvalues --   -0.57401  -0.57152  -0.55939  -0.55659  -0.55655
 Alpha  occ. eigenvalues --   -0.54925  -0.54033  -0.53005  -0.52848  -0.52611
 Alpha  occ. eigenvalues --   -0.52415  -0.52354  -0.52072  -0.51032  -0.50949
 Alpha  occ. eigenvalues --   -0.50875  -0.50812  -0.49640  -0.49549  -0.49496
 Alpha  occ. eigenvalues --   -0.48428  -0.48390  -0.47935  -0.45588  -0.44726
 Alpha  occ. eigenvalues --   -0.43889  -0.42786  -0.40582  -0.40415  -0.39264
 Alpha  occ. eigenvalues --   -0.38141  -0.37532  -0.37021  -0.30302
 Alpha virt. eigenvalues --   -0.21339  -0.16043  -0.15510  -0.14347  -0.10717
 Alpha virt. eigenvalues --   -0.09983  -0.08930  -0.08568  -0.08343  -0.07572
 Alpha virt. eigenvalues --   -0.07548  -0.07445  -0.06644  -0.06307  -0.06174

  Beta  occ. eigenvalues --  -10.70509 -10.70509 -10.68706 -10.68706 -10.68651
  Beta  occ. eigenvalues --  -10.68650 -10.68215 -10.68215 -10.68203 -10.68202
  Beta  occ. eigenvalues --  -10.67479 -10.67462 -10.67376 -10.66706 -10.66705
  Beta  occ. eigenvalues --  -10.66598 -10.66598 -10.65891 -10.65891 -10.65828
  Beta  occ. eigenvalues --  -10.65828 -10.65698 -10.65698 -10.65666 -10.65665
  Beta  occ. eigenvalues --  -10.65632 -10.65632 -10.65613 -10.65613 -10.65429
  Beta  occ. eigenvalues --  -10.65429 -10.65414 -10.65414 -10.65360 -10.65359
  Beta  occ. eigenvalues --  -10.65228 -10.65228 -10.64850 -10.64849 -10.63772
  Beta  occ. eigenvalues --  -10.63762 -10.63661  -1.11646  -1.10179  -1.09917
  Beta  occ. eigenvalues --   -1.08172  -1.07724  -1.05050  -1.04833  -1.02390
  Beta  occ. eigenvalues --   -1.02050  -1.00842  -1.00033  -0.97831  -0.97560
  Beta  occ. eigenvalues --   -0.96596  -0.96212  -0.94817  -0.93477  -0.93373
  Beta  occ. eigenvalues --   -0.92795  -0.91628  -0.87049  -0.86794  -0.84916
  Beta  occ. eigenvalues --   -0.84754  -0.82946  -0.81429  -0.80650  -0.79674
  Beta  occ. eigenvalues --   -0.79602  -0.79465  -0.77217  -0.76160  -0.76005
  Beta  occ. eigenvalues --   -0.75727  -0.75275  -0.73178  -0.70027  -0.69470
  Beta  occ. eigenvalues --   -0.68633  -0.68418  -0.67710  -0.67612  -0.66779
  Beta  occ. eigenvalues --   -0.66776  -0.65647  -0.65200  -0.65084  -0.64581
  Beta  occ. eigenvalues --   -0.63048  -0.62683  -0.62324  -0.62037  -0.60806
  Beta  occ. eigenvalues --   -0.60712  -0.60398  -0.60060  -0.59966  -0.59934
  Beta  occ. eigenvalues --   -0.59392  -0.58716  -0.58619  -0.58028  -0.57530
  Beta  occ. eigenvalues --   -0.57135  -0.56811  -0.55695  -0.55613  -0.55609
  Beta  occ. eigenvalues --   -0.54895  -0.53738  -0.52905  -0.52765  -0.52552
  Beta  occ. eigenvalues --   -0.52313  -0.52239  -0.52050  -0.50968  -0.50852
  Beta  occ. eigenvalues --   -0.50793  -0.50378  -0.49463  -0.49402  -0.48876
  Beta  occ. eigenvalues --   -0.48327  -0.47801  -0.47659  -0.44851  -0.44217
  Beta  occ. eigenvalues --   -0.43176  -0.42435  -0.40354  -0.40270  -0.38674
  Beta  occ. eigenvalues --   -0.38050  -0.37199  -0.36976
  Beta virt. eigenvalues --   -0.20695  -0.18267  -0.15918  -0.15497  -0.14411
  Beta virt. eigenvalues --   -0.10369  -0.09570  -0.08553  -0.08545  -0.08033
  Beta virt. eigenvalues --   -0.07618  -0.07566  -0.07256  -0.06632  -0.06271

 Mulliken charges and spin densities:
               1          2
     1  C    0.043852   0.376969
     2  C    0.044191   0.377100
     3  C    0.356067   0.022230
     4  C    0.215936  -0.016559
     5  C    0.120850   0.007049
     6  C   -0.005552  -0.042504
     7  C   -0.315013   0.000623
     8  H    0.176013  -0.000002
     9  C    0.034188  -0.050950
    10  C   -0.315111   0.000622
    11  H    0.176011  -0.000002
    12  C    0.120901   0.007030
    13  C   -0.005912  -0.042504
    14  C    0.566188   0.027233
    15  C    0.366130  -0.084562
    16  C   -0.429726  -0.035822
    17  H    0.165209   0.001165
    18  C   -0.477784   0.001767
    19  H    0.175460   0.000116
    20  C    0.260855   0.109147
    21  C   -0.097605   0.023521
    22  H    0.176969  -0.000441
    23  C    0.366367  -0.084589
    24  C    0.261112   0.109200
    25  C   -0.477872   0.001770
    26  H    0.175461   0.000116
    27  C    0.566673   0.027276
    28  C   -0.035310   0.083846
    29  H    0.211533  -0.004713
    30  C   -0.253342   0.039160
    31  H    0.224087  -0.003493
    32  C   -0.400957   0.061382
    33  H    0.182495  -0.003512
    34  C   -0.097595   0.023512
    35  H    0.176959  -0.000441
    36  C   -0.024565  -0.064202
    37  H    0.159302   0.001492
    38  C    0.034572  -0.050934
    39  C   -0.340052   0.050730
    40  H    0.163767  -0.002536
    41  C   -0.211768   0.074412
    42  H    0.181051  -0.003925
    43  C   -0.363996   0.011014
    44  H    0.160540  -0.000453
    45  C   -0.024964  -0.064243
    46  H    0.159318   0.001494
    47  C    0.019616  -0.040974
    48  H    0.167686   0.000222
    49  C   -0.253150   0.039126
    50  H    0.224080  -0.003494
    51  C   -0.212228   0.074361
    52  H    0.181051  -0.003920
    53  C   -0.429990  -0.035788
    54  H    0.165218   0.001166
    55  C   -0.562689  -0.036081
    56  H    0.176383   0.001473
    57  C   -0.401082   0.061376
    58  H    0.182498  -0.003513
    59  C   -0.339283   0.050748
    60  H    0.163739  -0.002539
    61  C   -0.563059  -0.036090
    62  H    0.176388   0.001473
    63  C   -0.363620   0.010982
    64  H    0.160507  -0.000452
    65  C   -0.035790   0.083856
    66  H    0.211567  -0.004714
    67  C    0.019529  -0.041025
    68  H    0.167695   0.000222
 Sum of Mulliken charges =   1.00000   1.00000

 Dipole moment (field-independent basis, Debye):
    X=              0.0001    Y=              2.5240    Z=             -0.0015  Tot=              2.5240
 Quadrupole moment (field-independent basis, Debye-Ang):
   XX=           -222.3053   YY=           -174.8108   ZZ=           -176.2930
   XY=             -0.0025   XZ=              0.4740   YZ=              0.0065

 Normal termination of Gaussian 16 at Fri Nov  8 04:08:37 2024.
