 Gaussian 16, Revision A.03,
 Gaussian 16:  ES64L-G16RevA.03 25-Dec-2016

 --------------------------------------------
 #p opt UM062X/6-311+G** nosymm int=superfine
 --------------------------------------------

 -------------------
 Title Card Required
 -------------------
 Symbolic Z-matrix:
 Charge =  1 Multiplicity = 2

 SCF Done:  E(UM062X) =  -579.418452068     A.U. after   17 cycles
 SCF Done:  E(UM062X) =  -579.762402352     A.U. after   14 cycles
 SCF Done:  E(UM062X) =  -580.194943859     A.U. after   14 cycles
 SCF Done:  E(UM062X) =  -580.499106681     A.U. after   13 cycles
 SCF Done:  E(UM062X) =  -580.565037722     A.U. after   13 cycles
 SCF Done:  E(UM062X) =  -580.613751054     A.U. after   10 cycles
 SCF Done:  E(UM062X) =  -580.700788628     A.U. after   11 cycles
 SCF Done:  E(UM062X) =  -580.765984159     A.U. after   12 cycles
 SCF Done:  E(UM062X) =  -580.873049143     A.U. after   10 cycles
 SCF Done:  E(UM062X) =  -580.969710203     A.U. after   11 cycles
 SCF Done:  E(UM062X) =  -580.983127671     A.U. after    9 cycles
 SCF Done:  E(UM062X) =  -580.986412036     A.U. after    8 cycles
 SCF Done:  E(UM062X) =  -580.987423280     A.U. after    8 cycles
 SCF Done:  E(UM062X) =  -580.987629855     A.U. after    8 cycles
 SCF Done:  E(UM062X) =  -580.987640406     A.U. after    7 cycles
 Optimization completed.
    -- Stationary point found.

                          Input orientation:
 ---------------------------------------------------------------------
 Center     Atomic      Atomic             Coordinates (Angstroms)
 Number     Number       Type             X           Y           Z
 ---------------------------------------------------------------------
      1         14           0       -1.116295    0.000068   -0.000127
      2         14           0        1.116295   -0.000068   -0.000127
      3          1           0       -1.844844   -1.273493   -0.001174
      4          1           0        1.844844    1.273494   -0.000280
      5          1           0       -1.844710    1.273713    0.001015
      6          1           0        1.844710   -1.273714    0.000121
 ---------------------------------------------------------------------

 Alpha  occ. eigenvalues --  -67.25327 -67.25327  -5.80238  -5.80224  -4.11917
 Alpha  occ. eigenvalues --   -4.11907  -4.11210  -4.11124  -4.11078  -4.11069
 Alpha  occ. eigenvalues --   -0.87392  -0.78333  -0.65720  -0.62866  -0.60392
 Alpha  occ. eigenvalues --   -0.48724
 Alpha virt. eigenvalues --   -0.27300  -0.17964  -0.17482  -0.13786  -0.11924
 Alpha virt. eigenvalues --   -0.10316  -0.09727  -0.09045  -0.08367  -0.08272
 Alpha virt. eigenvalues --   -0.06829  -0.05806  -0.00805   0.06675   0.07107

  Beta  occ. eigenvalues --  -67.25033 -67.25032  -5.80155  -5.80142  -4.11173
  Beta  occ. eigenvalues --   -4.11161  -4.11144  -4.11048  -4.10970  -4.10960
  Beta  occ. eigenvalues --   -0.84954  -0.77102  -0.65491  -0.63012  -0.59846
  Beta virt. eigenvalues --   -0.32662  -0.22836  -0.16751  -0.15748  -0.15175
  Beta virt. eigenvalues --   -0.12364  -0.10417  -0.09878  -0.08322  -0.08181
  Beta virt. eigenvalues --   -0.07813  -0.06580  -0.03917  -0.01813   0.07030

 Mulliken charges and spin densities:
               1          2
     1  Si   0.431125   0.552236
     2  Si   0.431125   0.552236
     3  H    0.034436  -0.026118
     4  H    0.034436  -0.026118
     5  H    0.034439  -0.026118
     6  H    0.034439  -0.026118
 Sum of Mulliken charges =   1.00000   1.00000

 Dipole moment (field-independent basis, Debye):
    X=              0.0000    Y=              0.0000    Z=             -0.0007  Tot=              0.0007
 Quadrupole moment (field-independent basis, Debye-Ang):
   XX=            -14.8581   YY=            -23.3096   ZZ=            -23.2998
   XY=             -0.0006   XZ=             -0.0000   YZ=             -0.0000

 Normal termination of Gaussian 16 at Wed Apr 16 05:26:59 2025.
