 Gaussian 16, Revision A.03,
 Gaussian 16:  ES64L-G16RevA.03 25-Dec-2016

 --------------------------------------------
 #p opt UM062X/6-311+G** nosymm int=superfine
 --------------------------------------------

 -------------------
 Title Card Required
 -------------------
 Symbolic Z-matrix:
 Charge = -1 Multiplicity = 2

 SCF Done:  E(UM062X) =  -50.5421311682     A.U. after   17 cycles
 SCF Done:  E(UM062X) =  -50.5488191054     A.U. after   14 cycles
 SCF Done:  E(UM062X) =  -50.5495282113     A.U. after   14 cycles
 Optimization completed.
    -- Stationary point found.

                          Input orientation:
 ---------------------------------------------------------------------
 Center     Atomic      Atomic             Coordinates (Angstroms)
 Number     Number       Type             X           Y           Z
 ---------------------------------------------------------------------
      1          5           0       -1.491404    0.000000    0.000000
      2          5           0        1.491404    0.000000    0.000000
      3          1           0       -2.788962   -0.000978    0.000004
      4          1           0        2.788962    0.000978   -0.000004
 ---------------------------------------------------------------------

 Alpha  occ. eigenvalues --   -6.89968  -6.89967  -0.33124  -0.32458  -0.11405
 Alpha  occ. eigenvalues --   -0.02216   0.01992
 Alpha virt. eigenvalues --    0.12390   0.12954   0.15241   0.15994   0.16553
 Alpha virt. eigenvalues --    0.22053   0.22353   0.22626   0.22662   0.24113
 Alpha virt. eigenvalues --    0.26156   0.34975   0.38459   0.54134   0.58294

  Beta  occ. eigenvalues --   -6.89887  -6.89887  -0.32014  -0.31575  -0.10133
  Beta  occ. eigenvalues --   -0.01227
  Beta virt. eigenvalues --    0.10126   0.11257   0.13325   0.13573   0.14001
  Beta virt. eigenvalues --    0.14477   0.18871   0.20438   0.20515   0.21706
  Beta virt. eigenvalues --    0.22281   0.23073   0.34610   0.38601   0.53654

 Mulliken charges and spin densities:
               1          2
     1  B   -0.391059   0.507524
     2  B   -0.391059   0.507524
     3  H   -0.108941  -0.007524
     4  H   -0.108941  -0.007524
 Sum of Mulliken charges =  -1.00000   1.00000

 Dipole moment (field-independent basis, Debye):
    X=             -0.0000    Y=             -0.0000    Z=              0.0000  Tot=              0.0000
 Quadrupole moment (field-independent basis, Debye-Ang):
   XX=            -39.1317   YY=            -19.1088   ZZ=            -26.5436
   XY=             -0.0017   XZ=              0.0000   YZ=             -0.0312

 Normal termination of Gaussian 16 at Mon Apr 21 17:26:45 2025.
