 Gaussian 16, Revision A.03,
 Gaussian 16:  ES64L-G16RevA.03 25-Dec-2016

 ---------------------------------------------------------------------
 #p opt UM062X/6-311+G** nosymm int=superfine SCF=(Tight,MaxCycle=200)
 ---------------------------------------------------------------------

 -------------------
 Title Card Required
 -------------------
 Symbolic Z-matrix:
 Charge =  1 Multiplicity = 2

 SCF Done:  E(UM062X) =  -1615.51744371     A.U. after   21 cycles
 SCF Done:  E(UM062X) =  -1615.55215142     A.U. after   19 cycles
 SCF Done:  E(UM062X) =  -1615.56859060     A.U. after   19 cycles
 SCF Done:  E(UM062X) =  -1615.56803228     A.U. after   20 cycles
 SCF Done:  E(UM062X) =  -1615.50945654     A.U. after   23 cycles
 SCF Done:  E(UM062X) =  -1615.50671546     A.U. after   22 cycles
 SCF Done:  E(UM062X) =  -1615.56893863     A.U. after   18 cycles
 SCF Done:  E(UM062X) =  -1615.56349217     A.U. after   22 cycles
 SCF Done:  E(UM062X) =  -1615.56914130     A.U. after   20 cycles
 SCF Done:  E(UM062X) =  -1615.56993261     A.U. after   19 cycles
 SCF Done:  E(UM062X) =  -1615.56973845     A.U. after   19 cycles
 SCF Done:  E(UM062X) =  -1615.57000358     A.U. after   19 cycles
 SCF Done:  E(UM062X) =  -1615.57001242     A.U. after   16 cycles
 SCF Done:  E(UM062X) =  -1615.57002148     A.U. after   15 cycles
 SCF Done:  E(UM062X) =  -1615.57002214     A.U. after   14 cycles
 SCF Done:  E(UM062X) =  -1615.57002226     A.U. after   12 cycles
 SCF Done:  E(UM062X) =  -1615.57002229     A.U. after   12 cycles
 Optimization completed.
    -- Stationary point found.

                          Input orientation:
 ---------------------------------------------------------------------
 Center     Atomic      Atomic             Coordinates (Angstroms)
 Number     Number       Type             X           Y           Z
 ---------------------------------------------------------------------
      1          6           0       -1.141368   -0.000000    0.000000
      2          6           0        1.141368    0.000000    0.000000
      3          6           0        0.000013   -2.169152    0.008266
      4          6           0        0.000008   -3.540476    0.013467
      5          6           0       -1.127269   -4.325832    0.317772
      6          6           0       -1.192764   -1.479128    0.290226
      7          6           0        0.655485   -5.724362   -0.155110
      8          1           0        1.261649   -6.603933   -0.318757
      9          6           0       -1.444172    0.865434    1.140617
     10          6           0       -0.655590   -5.723019    0.198186
     11          1           0       -1.261802   -6.601321    0.368336
     12          6           0        1.127241   -4.328125   -0.285028
     13          6           0        1.192776   -1.481286   -0.279006
     14          6           0        1.648487    2.270355   -1.130700
     15          6           0       -1.450985    0.270703   -1.417248
     16          6           0       -1.871722    2.965452    2.327417
     17          1           0       -2.032330    4.036311    2.282376
     18          6           0       -2.289318   -3.653475    0.632907
     19          1           0       -3.203721   -4.179824    0.882378
     20          6           0       -1.556111    1.557879   -2.026767
     21          6           0        2.313145   -2.226934   -0.590960
     22          1           0        3.252520   -1.723702   -0.794933
     23          6           0        1.450911    0.281490    1.415170
     24          6           0        1.555665    1.573268    2.014932
     25          6           0        2.289265   -3.658182   -0.605346
     26          1           0        3.203620   -4.186410   -0.850992
     27          6           0       -1.648898    2.278750    1.113517
     28          6           0       -1.451034    0.249915    2.419920
     29          1           0       -1.268474   -0.811002    2.493726
     30          6           0        1.599739   -0.824552    2.297022
     31          1           0        1.564853   -1.831769    1.913147
     32          6           0       -1.891573    2.326901    3.545515
     33          1           0       -2.068355    2.886915    4.455659
     34          6           0       -2.313165   -2.222378    0.607746
     35          1           0       -3.252552   -1.717606    0.807813
     36          6           0       -1.736718    1.656201   -3.423656
     37          1           0       -1.794497    2.647389   -3.858096
     38          6           0        1.444031    0.856834   -1.147139
     39          6           0       -1.605701    3.130247   -0.044464
     40          1           0       -1.652112    4.189767    0.187861
     41          6           0       -1.868870    0.551909   -4.232399
     42          1           0       -2.024789    0.665569   -5.298150
     43          6           0       -1.534746    2.829500   -1.355886
     44          1           0       -1.528620    3.682027   -2.028219
     45          6           0        1.736228    1.682219    3.411035
     46          1           0        1.793725    2.676685    3.837956
     47          6           0       -1.670167    0.946587    3.586759
     48          1           0       -1.659929    0.419806    4.533228
     49          6           0       -1.599441   -0.842030   -2.290702
     50          1           0       -1.564208   -1.846303   -1.899214
     51          6           0        1.868699    0.584124    4.228121
     52          1           0        2.024589    0.705908    5.292978
     53          6           0        1.871265    2.947925   -2.349730
     54          1           0        2.031707    4.019117   -2.312748
     55          6           0        1.814846   -0.685669    3.651455
     56          1           0        1.939264   -1.572077    4.261380
     57          6           0        1.891249    2.300216   -3.562980
     58          1           0        2.067976    2.853377   -4.477317
     59          6           0        1.604954    3.130585    0.020794
     60          1           0        1.651084    4.188327   -0.219548
     61          6           0       -1.814609   -0.713471   -3.646140
     62          1           0       -1.938747   -1.604506   -4.249343
     63          6           0        1.533965    2.839767    1.334447
     64          1           0        1.527545    3.697360    2.000304
     65          6           0        1.450919    0.231717   -2.421780
     66          1           0        1.268467   -0.829743   -2.487601
     67          6           0        1.669982    0.919612   -3.593830
     68          1           0        1.659776    0.385720   -4.536306
 ---------------------------------------------------------------------

 Alpha  occ. eigenvalues --  -10.71798 -10.71794 -10.68707 -10.68707 -10.68558
 Alpha  occ. eigenvalues --  -10.68557 -10.68392 -10.68392 -10.67955 -10.67955
 Alpha  occ. eigenvalues --  -10.66802 -10.66801 -10.66725 -10.66725 -10.66595
 Alpha  occ. eigenvalues --  -10.66594 -10.66059 -10.66059 -10.65944 -10.65944
 Alpha  occ. eigenvalues --  -10.65824 -10.65823 -10.65770 -10.65770 -10.65704
 Alpha  occ. eigenvalues --  -10.65703 -10.65638 -10.65638 -10.65589 -10.65589
 Alpha  occ. eigenvalues --  -10.65508 -10.65508 -10.65495 -10.65495 -10.65258
 Alpha  occ. eigenvalues --  -10.65258 -10.65046 -10.65028 -10.65027 -10.64114
 Alpha  occ. eigenvalues --  -10.64017 -10.62975  -1.12874  -1.10384  -1.09956
 Alpha  occ. eigenvalues --   -1.08508  -1.07816  -1.06074  -1.04545  -1.02669
 Alpha  occ. eigenvalues --   -1.02197  -1.00677  -1.00492  -0.97925  -0.97684
 Alpha  occ. eigenvalues --   -0.96958  -0.96235  -0.95012  -0.93457  -0.93436
 Alpha  occ. eigenvalues --   -0.92763  -0.91945  -0.87725  -0.87246  -0.84968
 Alpha  occ. eigenvalues --   -0.84723  -0.82968  -0.81564  -0.81284  -0.79898
 Alpha  occ. eigenvalues --   -0.79757  -0.79522  -0.77689  -0.76423  -0.76198
 Alpha  occ. eigenvalues --   -0.75602  -0.75415  -0.73802  -0.70194  -0.69852
 Alpha  occ. eigenvalues --   -0.69127  -0.68405  -0.67745  -0.67581  -0.67010
 Alpha  occ. eigenvalues --   -0.66805  -0.65592  -0.65316  -0.65035  -0.64884
 Alpha  occ. eigenvalues --   -0.63475  -0.63060  -0.62269  -0.62238  -0.61400
 Alpha  occ. eigenvalues --   -0.61213  -0.60729  -0.60367  -0.60157  -0.60019
 Alpha  occ. eigenvalues --   -0.59603  -0.58898  -0.58688  -0.58131  -0.57822
 Alpha  occ. eigenvalues --   -0.57536  -0.56450  -0.55745  -0.55734  -0.55675
 Alpha  occ. eigenvalues --   -0.54968  -0.54313  -0.53450  -0.52857  -0.52727
 Alpha  occ. eigenvalues --   -0.52560  -0.52265  -0.52126  -0.51489  -0.51023
 Alpha  occ. eigenvalues --   -0.50945  -0.50938  -0.50533  -0.49391  -0.48942
 Alpha  occ. eigenvalues --   -0.48914  -0.48523  -0.48035  -0.44436  -0.44008
 Alpha  occ. eigenvalues --   -0.43696  -0.43112  -0.40685  -0.40295  -0.39334
 Alpha  occ. eigenvalues --   -0.38026  -0.37812  -0.37249  -0.33889
 Alpha virt. eigenvalues --   -0.17745  -0.15565  -0.15380  -0.14768  -0.10333
 Alpha virt. eigenvalues --   -0.09926  -0.08756  -0.08622  -0.08329  -0.07644
 Alpha virt. eigenvalues --   -0.07611  -0.07487  -0.06615  -0.06468  -0.06374

  Beta  occ. eigenvalues --  -10.71688 -10.71687 -10.68702 -10.68702 -10.68568
  Beta  occ. eigenvalues --  -10.68568 -10.68350 -10.68350 -10.67923 -10.67922
  Beta  occ. eigenvalues --  -10.66810 -10.66810 -10.66707 -10.66707 -10.66571
  Beta  occ. eigenvalues --  -10.66571 -10.66033 -10.66033 -10.65945 -10.65945
  Beta  occ. eigenvalues --  -10.65834 -10.65834 -10.65761 -10.65761 -10.65690
  Beta  occ. eigenvalues --  -10.65690 -10.65631 -10.65631 -10.65593 -10.65593
  Beta  occ. eigenvalues --  -10.65499 -10.65499 -10.65484 -10.65484 -10.65261
  Beta  occ. eigenvalues --  -10.65261 -10.65030 -10.65023 -10.65023 -10.64113
  Beta  occ. eigenvalues --  -10.64017 -10.62976  -1.12727  -1.10281  -1.09786
  Beta  occ. eigenvalues --   -1.08374  -1.07694  -1.05935  -1.04439  -1.02510
  Beta  occ. eigenvalues --   -1.02052  -1.00535  -1.00336  -0.97814  -0.97582
  Beta  occ. eigenvalues --   -0.96823  -0.96123  -0.94963  -0.93368  -0.93347
  Beta  occ. eigenvalues --   -0.92631  -0.91834  -0.87423  -0.86972  -0.84877
  Beta  occ. eigenvalues --   -0.84642  -0.82894  -0.81439  -0.81205  -0.79796
  Beta  occ. eigenvalues --   -0.79684  -0.79450  -0.77558  -0.76240  -0.76030
  Beta  occ. eigenvalues --   -0.75433  -0.75379  -0.73675  -0.70081  -0.69708
  Beta  occ. eigenvalues --   -0.69012  -0.68309  -0.67652  -0.67507  -0.66883
  Beta  occ. eigenvalues --   -0.66703  -0.65502  -0.65187  -0.64907  -0.64757
  Beta  occ. eigenvalues --   -0.63192  -0.63018  -0.62168  -0.62156  -0.61129
  Beta  occ. eigenvalues --   -0.61037  -0.60572  -0.60233  -0.60100  -0.59957
  Beta  occ. eigenvalues --   -0.59470  -0.58727  -0.58605  -0.58028  -0.57513
  Beta  occ. eigenvalues --   -0.57330  -0.56311  -0.55661  -0.55592  -0.55252
  Beta  occ. eigenvalues --   -0.54952  -0.53895  -0.53232  -0.52757  -0.52629
  Beta  occ. eigenvalues --   -0.52509  -0.52165  -0.52011  -0.51048  -0.50947
  Beta  occ. eigenvalues --   -0.50828  -0.50525  -0.49874  -0.49156  -0.48878
  Beta  occ. eigenvalues --   -0.48771  -0.48447  -0.47592  -0.43843  -0.43468
  Beta  occ. eigenvalues --   -0.43089  -0.42744  -0.40237  -0.40230  -0.38722
  Beta  occ. eigenvalues --   -0.37742  -0.37374  -0.36958
  Beta virt. eigenvalues --   -0.24247  -0.16413  -0.15502  -0.14971  -0.14716
  Beta virt. eigenvalues --   -0.10171  -0.09530  -0.08490  -0.08387  -0.08266
  Beta virt. eigenvalues --   -0.07581  -0.07550  -0.07339  -0.06597  -0.06354

 Mulliken charges and spin densities:
               1          2
     1  C   -0.019765   0.144905
     2  C   -0.019286   0.144940
     3  C    0.167304   0.001495
     4  C    0.111632  -0.003349
     5  C    0.108819   0.006503
     6  C    0.104029  -0.006287
     7  C   -0.301044   0.001580
     8  H    0.176304  -0.000078
     9  C    0.232172   0.028551
    10  C   -0.301233   0.001580
    11  H    0.176303  -0.000078
    12  C    0.108913   0.006501
    13  C    0.104182  -0.006288
    14  C    0.183565   0.063974
    15  C    0.267156   0.007000
    16  C   -0.204413  -0.022444
    17  H    0.164231   0.000629
    18  C   -0.463573  -0.001366
    19  H    0.175352   0.000510
    20  C    0.208764   0.080752
    21  C   -0.156319   0.016820
    22  H    0.174807  -0.000647
    23  C    0.267391   0.006999
    24  C    0.208569   0.080761
    25  C   -0.463336  -0.001371
    26  H    0.175353   0.000510
    27  C    0.182646   0.063965
    28  C   -0.131660   0.014416
    29  H    0.200315  -0.001265
    30  C   -0.276932   0.022262
    31  H    0.222943  -0.000490
    32  C   -0.323801   0.047491
    33  H    0.180848  -0.002477
    34  C   -0.156462   0.016817
    35  H    0.174797  -0.000647
    36  C   -0.130182  -0.031027
    37  H    0.164359   0.000945
    38  C    0.232300   0.028554
    39  C   -0.236890   0.072043
    40  H    0.168376  -0.005171
    41  C   -0.244875   0.034748
    42  H    0.179324  -0.001587
    43  C   -0.203894   0.036454
    44  H    0.160114  -0.002332
    45  C   -0.130364  -0.031033
    46  H    0.164362   0.000945
    47  C   -0.138601   0.012680
    48  H    0.171006  -0.002161
    49  C   -0.276894   0.022250
    50  H    0.222945  -0.000490
    51  C   -0.244950   0.034744
    52  H    0.179322  -0.001587
    53  C   -0.205175  -0.022455
    54  H    0.164232   0.000629
    55  C   -0.224322  -0.014153
    56  H    0.174968   0.000136
    57  C   -0.323877   0.047487
    58  H    0.180848  -0.002477
    59  C   -0.236757   0.072072
    60  H    0.168366  -0.005173
    61  C   -0.224271  -0.014144
    62  H    0.174966   0.000136
    63  C   -0.203951   0.036447
    64  H    0.160109  -0.002334
    65  C   -0.131705   0.014431
    66  H    0.200301  -0.001266
    67  C   -0.138765   0.012670
    68  H    0.171005  -0.002161
 Sum of Mulliken charges =   1.00000   1.00000

 Dipole moment (field-independent basis, Debye):
    X=             -0.0007    Y=              2.5889    Z=             -0.0100  Tot=              2.5889
 Quadrupole moment (field-independent basis, Debye-Ang):
   XX=           -222.4116   YY=           -174.7374   ZZ=           -176.7456
   XY=             -0.0111   XZ=             -1.7014   YZ=             -0.0058

 Normal termination of Gaussian 16 at Fri Mar 21 09:20:30 2025.
