 Gaussian 16, Revision A.03,
 Gaussian 16:  ES64L-G16RevA.03 25-Dec-2016

 ---------------------------------------------------
 #p UM062X/6-311+G** force int=superfine pop=saveNBO
 ---------------------------------------------------

 -------------------
 Title Card Required
 -------------------
 Symbolic Z-matrix:
 Charge =  0 Multiplicity = 1

                         Standard orientation:
 ---------------------------------------------------------------------
 Center     Atomic      Atomic             Coordinates (Angstroms)
 Number     Number       Type             X           Y           Z
 ---------------------------------------------------------------------
      1         16           0        0.000000    0.000000    1.825200
      2         16           0        0.000000    0.000000   -1.825200
 ---------------------------------------------------------------------

 SCF Done:  E(UM062X) =  -796.056463574     A.U. after    9 cycles

 Unable to determine electronic state:  partially filled degenerate orbitals.
 Alpha  occ. eigenvalues --  -89.99037 -89.99037  -8.34792  -8.34792  -6.26825
 Alpha  occ. eigenvalues --   -6.26824  -6.26804  -6.26804  -6.25974  -6.25973
 Alpha  occ. eigenvalues --   -0.78457  -0.77308  -0.35105  -0.34325  -0.33674
 Alpha  occ. eigenvalues --   -0.31663
 Alpha virt. eigenvalues --   -0.23362  -0.21314   0.03019   0.03716   0.04803
 Alpha virt. eigenvalues --    0.05277   0.07119   0.07403   0.07583   0.12709
 Alpha virt. eigenvalues --    0.31978   0.32852   0.32911   0.34354   0.36199

  Beta  occ. eigenvalues --  -89.99037 -89.99037  -8.34792  -8.34792  -6.26825
  Beta  occ. eigenvalues --   -6.26824  -6.26804  -6.26804  -6.25974  -6.25973
  Beta  occ. eigenvalues --   -0.78457  -0.77308  -0.35105  -0.34325  -0.33674
  Beta  occ. eigenvalues --   -0.31663
  Beta virt. eigenvalues --   -0.23362  -0.21314   0.03019   0.03716   0.04803
  Beta virt. eigenvalues --    0.05277   0.07119   0.07403   0.07583   0.12709
  Beta virt. eigenvalues --    0.31978   0.32852   0.32911   0.34354   0.36199

 Mulliken charges and spin densities:
               1          2
     1  S    0.000000   0.000000
     2  S    0.000000   0.000000
 Sum of Mulliken charges =   0.00000   0.00000

 Dipole moment (field-independent basis, Debye):
    X=              0.0000    Y=              0.0000    Z=             -0.0000  Tot=              0.0000
 Quadrupole moment (field-independent basis, Debye-Ang):
   XX=            -25.4121   YY=            -30.3828   ZZ=            -22.4982
   XY=              0.0000   XZ=             -0.0000   YZ=              0.0000

 Summary of Natural Population Analysis:

                                       Natural Population
                Natural  -----------------------------------------------
    Atom  No    Charge         Core      Valence    Rydberg      Total
 -----------------------------------------------------------------------
      S    1    0.00000      5.00000     2.99920    0.00080     8.00000
      S    2    0.00000      5.00000     2.99920    0.00080     8.00000
 =======================================================================
   * Total *    0.00000      9.99999     5.99840    0.00161    16.00000

 Normal termination of Gaussian 16 at Mon Apr 21 20:08:23 2025.
