 Gaussian 16, Revision A.03,
 Gaussian 16:  ES64L-G16RevA.03 25-Dec-2016

 --------------------------------------------
 #p opt UM062X/6-311+G** nosymm int=superfine
 --------------------------------------------

 -------------------
 Title Card Required
 -------------------
 Symbolic Z-matrix:
 Charge =  0 Multiplicity = 1

 SCF Done:  E(UM062X) =  -379.818263646     A.U. after   11 cycles
 SCF Done:  E(UM062X) =  -379.818449510     A.U. after   10 cycles
 Optimization completed.
    -- Stationary point found.

                          Input orientation:
 ---------------------------------------------------------------------
 Center     Atomic      Atomic             Coordinates (Angstroms)
 Number     Number       Type             X           Y           Z
 ---------------------------------------------------------------------
      1          6           0       -1.040377    0.000000    0.000000
      2         15           0        1.040377    0.000000    0.000000
      3          1           0       -2.130962    0.000000    0.000000
 ---------------------------------------------------------------------

 Alpha  occ. eigenvalues --  -78.09652 -10.66317  -6.91143  -5.02571  -5.02444
 Alpha  occ. eigenvalues --   -5.02444  -0.75072  -0.63293  -0.42500  -0.29164
 Alpha  occ. eigenvalues --   -0.29164
 Alpha virt. eigenvalues --   -0.08829  -0.08829  -0.01450   0.01666   0.05234
 Alpha virt. eigenvalues --    0.05234   0.05286   0.07124   0.10351   0.10351
 Alpha virt. eigenvalues --    0.16107   0.21783   0.30944   0.32790   0.32790

  Beta  occ. eigenvalues --  -78.09652 -10.66317  -6.91143  -5.02571  -5.02444
  Beta  occ. eigenvalues --   -5.02444  -0.75072  -0.63293  -0.42500  -0.29164
  Beta  occ. eigenvalues --   -0.29164
  Beta virt. eigenvalues --   -0.08829  -0.08829  -0.01450   0.01666   0.05234
  Beta virt. eigenvalues --    0.05234   0.05286   0.07124   0.10351   0.10351
  Beta virt. eigenvalues --    0.16107   0.21783   0.30944   0.32790   0.32790

 Mulliken charges and spin densities:
               1          2
     1  C   -0.338793  -0.000000
     2  P    0.116735   0.000000
     3  H    0.222058   0.000000
 Sum of Mulliken charges =  -0.00000   0.00000

 Dipole moment (field-independent basis, Debye):
    X=             -0.3925    Y=              0.0000    Z=             -0.0000  Tot=              0.3925
 Quadrupole moment (field-independent basis, Debye-Ang):
   XX=            -13.8315   YY=            -22.1651   ZZ=            -22.1651
   XY=             -0.0000   XZ=             -0.0000   YZ=              0.0000

 Normal termination of Gaussian 16 at Mon Apr 21 19:28:40 2025.
