 Gaussian 16, Revision A.03,
 Gaussian 16:  ES64L-G16RevA.03 25-Dec-2016

 --------------------------------------------
 #p opt UM062X/6-311+G** nosymm int=superfine
 --------------------------------------------

 -------------------
 Title Card Required
 -------------------
 Symbolic Z-matrix:
 Charge =  0 Multiplicity = 1

 SCF Done:  E(UM062X) =  -438.569148455     A.U. after   11 cycles
 SCF Done:  E(UM062X) =  -438.578857421     A.U. after   10 cycles
 SCF Done:  E(UM062X) =  -438.581614115     A.U. after   10 cycles
 SCF Done:  E(UM062X) =  -438.581632465     A.U. after    9 cycles
 SCF Done:  E(UM062X) =  -438.581641297     A.U. after    9 cycles
 SCF Done:  E(UM062X) =  -438.581642682     A.U. after    8 cycles
 Optimization completed.
    -- Stationary point found.

                          Input orientation:
 ---------------------------------------------------------------------
 Center     Atomic      Atomic             Coordinates (Angstroms)
 Number     Number       Type             X           Y           Z
 ---------------------------------------------------------------------
      1          6           0       -1.385220    0.000000    0.000000
      2         16           0        1.385220    0.000000    0.000000
      3          1           0        1.365301   -1.343806   -0.000651
      4          1           0       -1.498582    1.075005    0.002743
      5          1           0       -1.525764   -0.528068   -0.932622
      6          1           0       -1.525835   -0.532791    0.929925
 ---------------------------------------------------------------------

 Alpha  occ. eigenvalues --  -89.89064 -10.62368  -8.25293  -6.17362  -6.17259
 Alpha  occ. eigenvalues --   -6.16731  -0.81450  -0.76423  -0.52765  -0.52667
 Alpha  occ. eigenvalues --   -0.43240  -0.31701  -0.29134
 Alpha virt. eigenvalues --   -0.09527   0.01834   0.04290   0.05105   0.05568
 Alpha virt. eigenvalues --    0.07621   0.07804   0.08526   0.11243   0.13537
 Alpha virt. eigenvalues --    0.17082   0.17803   0.23033   0.32915   0.36287

  Beta  occ. eigenvalues --  -89.89064 -10.62368  -8.25293  -6.17362  -6.17259
  Beta  occ. eigenvalues --   -6.16731  -0.81450  -0.76423  -0.52765  -0.52667
  Beta  occ. eigenvalues --   -0.43240  -0.31701  -0.29134
  Beta virt. eigenvalues --   -0.09527   0.01834   0.04290   0.05105   0.05568
  Beta virt. eigenvalues --    0.07621   0.07804   0.08526   0.11243   0.13537
  Beta virt. eigenvalues --    0.17082   0.17803   0.23033   0.32915   0.36287

 Mulliken charges and spin densities:
               1          2
     1  C   -0.469992   0.000000
     2  S   -0.205284  -0.000000
     3  H    0.059237   0.000000
     4  H    0.205765  -0.000000
     5  H    0.205165  -0.000000
     6  H    0.205109  -0.000000
 Sum of Mulliken charges =  -0.00000  -0.00000

 Dipole moment (field-independent basis, Debye):
    X=             -3.0227    Y=             -0.9341    Z=             -0.0005  Tot=              3.1638
 Quadrupole moment (field-independent basis, Debye-Ang):
   XX=            -20.8746   YY=            -19.3995   ZZ=            -23.4150
   XY=             -1.5448   XZ=             -0.0008   YZ=              0.0020

 Normal termination of Gaussian 16 at Mon Apr 21 19:36:08 2025.
