 Gaussian 16, Revision A.03,
 Gaussian 16:  ES64L-G16RevA.03 25-Dec-2016

 ---------------------------------------------------
 #p UM062X/6-311+G** force int=superfine pop=saveNBO
 ---------------------------------------------------

 -------------------
 Title Card Required
 -------------------
 Symbolic Z-matrix:
 Charge =  0 Multiplicity = 1

                         Standard orientation:
 ---------------------------------------------------------------------
 Center     Atomic      Atomic             Coordinates (Angstroms)
 Number     Number       Type             X           Y           Z
 ---------------------------------------------------------------------
      1          8           0        0.000000    0.000000    2.018562
      2          8           0        0.000000    0.000000   -2.018562
 ---------------------------------------------------------------------

 SCF Done:  E(UM062X) =  -149.761649349     A.U. after   10 cycles

 Unable to determine electronic state:  partially filled degenerate orbitals.
 Alpha  occ. eigenvalues --  -19.82025 -19.82024  -1.09911  -1.09716  -0.48257
 Alpha  occ. eigenvalues --   -0.48202  -0.39042  -0.38679
 Alpha virt. eigenvalues --   -0.31630  -0.31198   0.08979   0.12348   0.14627
 Alpha virt. eigenvalues --    0.14716   0.16335   0.18424   0.18636   0.26828
 Alpha virt. eigenvalues --    0.99530   1.00811   1.01066   1.01580   1.02897

  Beta  occ. eigenvalues --  -19.82025 -19.82024  -1.09911  -1.09716  -0.48257
  Beta  occ. eigenvalues --   -0.48202  -0.39042  -0.38679
  Beta virt. eigenvalues --   -0.31630  -0.31198   0.08979   0.12348   0.14627
  Beta virt. eigenvalues --    0.14716   0.16335   0.18424   0.18636   0.26828
  Beta virt. eigenvalues --    0.99530   1.00811   1.01066   1.01580   1.02897

 Mulliken charges and spin densities:
               1          2
     1  O    0.000000   0.000000
     2  O    0.000000   0.000000
 Sum of Mulliken charges =   0.00000   0.00000

 Dipole moment (field-independent basis, Debye):
    X=              0.0000    Y=              0.0000    Z=              0.0000  Tot=              0.0000
 Quadrupole moment (field-independent basis, Debye-Ang):
   XX=            -12.0438   YY=            -10.1435   ZZ=             -9.5327
   XY=             -0.0000   XZ=             -0.0000   YZ=              0.0000

 Summary of Natural Population Analysis:

                                       Natural Population
                Natural  -----------------------------------------------
    Atom  No    Charge         Core      Valence    Rydberg      Total
 -----------------------------------------------------------------------
      O    1    0.00000      1.00000     2.99889    0.00111     4.00000
      O    2    0.00000      1.00000     2.99889    0.00111     4.00000
 =======================================================================
   * Total *    0.00000      2.00000     5.99778    0.00222     8.00000

 Normal termination of Gaussian 16 at Mon Apr 21 19:51:34 2025.
